Si CD                                   
           1
    10.944611   -0.039720    0.112608
     0.000000   11.103033   -0.156026
    -0.000000    0.000000   10.847230
   Si
    64
Direct configuration=  6110
   0.47374176  0.49392817  0.47331738
   0.46997725  0.49378512  0.98305845
   0.47430399  0.97242501  0.47822792
   0.46922138  0.97952625  0.98834851
   0.98554832  0.48695930  0.47212628
   0.96514668  0.49388348  0.96843534
   0.95689373  0.98220098  0.45679099
   0.95689305  0.99674401  0.97279407
   0.22214828  0.22268532  0.47384231
   0.23375773  0.21920224  0.96064570
   0.22114981  0.71480605  0.45526701
   0.19674709  0.72464112  0.96630651
   0.72721378  0.23859684  0.46256844
   0.69934827  0.25171346  0.98581196
   0.71659922  0.73307693  0.46700905
   0.70001568  0.75122331  0.97544494
   0.22359259  0.46466344  0.22814069
   0.22828942  0.46453252  0.72247883
   0.21616468  0.99185231  0.23398145
   0.21771376  0.97157754  0.72093027
   0.73011346  0.46886926  0.23584665
   0.70649445  0.49531773  0.72958392
   0.71059559  0.98715637  0.21899489
   0.71676048  0.98823071  0.71430056
   0.43703780  0.23852104  0.22764107
   0.47240830  0.23078253  0.71182476
   0.48660312  0.72331781  0.21489589
   0.46898039  0.74143317  0.71803354
   0.97919730  0.24247375  0.21447585
   0.94206431  0.24151816  0.73169694
   0.95860628  0.72368534  0.20054843
   0.98054125  0.72849665  0.70336547
   0.09971326  0.10708103  0.09773658
   0.07444130  0.11836826  0.59267606
   0.09058213  0.60226063  0.10326889
   0.10896121  0.60093463  0.60024124
   0.58782314  0.12166050  0.10631820
   0.59051919  0.11846082  0.57659123
   0.61566940  0.60043709  0.08054957
   0.58905358  0.60518749  0.60867202
   0.33630546  0.37095709  0.09816810
   0.34287280  0.33891156  0.59536325
   0.32974229  0.84077794  0.10437666
   0.33867837  0.85778139  0.57853110
   0.84995647  0.37894551  0.09350494
   0.84684710  0.37498467  0.60172887
   0.84085572  0.85448482  0.08869148
   0.84430589  0.84878770  0.57594854
   0.35210216  0.10074872  0.36459901
   0.36438424  0.08854017  0.83848995
   0.36386831  0.61252169  0.33960122
   0.33944864  0.60800656  0.84949409
   0.84223197  0.10500885  0.33444660
   0.82882242  0.09706748  0.84473669
   0.84968864  0.60531298  0.34583224
   0.83598405  0.62924889  0.84485827
   0.09323632  0.36062254  0.34220321
   0.08040615  0.35211429  0.84544067
   0.08010470  0.85376581  0.31182478
   0.07665158  0.85931882  0.84737698
   0.59240866  0.34986971  0.35084272
   0.57227884  0.37354781  0.83852347
   0.59516544  0.86179617  0.32953497
   0.60641577  0.86312188  0.84029720
