Si CD                                   
           1
    11.069640   -0.252944    0.158386
     0.000000   10.951536   -0.124480
    -0.000000    0.000000   10.986522
   Si
    64
Direct configuration=  9310
   0.44010752  0.54201257  0.44684488
   0.45854052  0.52062229  0.96179945
   0.45949523  1.00579682  0.49165040
   0.44002639  1.00845121  0.97989268
   0.95323659  0.47538936  0.48095237
   0.94719758  0.51406927  0.97751643
   0.95133649  1.04970557  0.49460118
   0.94353047  1.01898837  0.99630773
   0.21531107  0.26197736  0.45054346
   0.20720715  0.25446299  0.92459593
   0.19518315  0.74946121  0.45636792
   0.20145585  0.76166927  0.94645007
   0.70291080  0.27336762  0.45760320
   0.69981395  0.24737544  0.96805302
   0.72265667  0.73005631  0.47805325
   0.70648906  0.76140480  0.95429461
   0.15980602  0.49623949  0.20440679
   0.17693782  0.49337568  0.70999033
   0.20834823  1.00590674  0.22503782
   0.18123766  1.01723850  0.71059833
   0.70401775  0.51061062  0.21099732
   0.69069504  0.52628761  0.72735803
   0.69235433  1.00193286  0.25727347
   0.66688325  1.00763932  0.70053538
   0.45456082  0.25915886  0.20355936
   0.44163438  0.23084202  0.73264948
   0.43705676  0.75328825  0.21449269
   0.42430230  0.76809837  0.69875388
   0.93628647  0.24327649  0.20976362
   0.92521417  0.27029225  0.72630574
   0.93884653  0.76767248  0.22552674
   0.96388844  0.76632857  0.69212221
   0.10962206  0.13728254  0.10872516
   0.08006019  0.17275176  0.60979977
   0.07050106  0.65656855  0.09251629
   0.07800650  0.62225995  0.57883587
   0.59513805  0.12326726  0.11141665
   0.58018604  0.14194703  0.58543141
   0.58740290  0.63492935  0.07960255
   0.55602812  0.63015903  0.60080353
   0.33060673  0.39187223  0.06956539
   0.31958586  0.38721784  0.60004941
   0.32045833  0.86756230  0.08006191
   0.30913906  0.89084097  0.59202386
   0.83299397  0.36707477  0.07777189
   0.81670712  0.40219222  0.62405571
   0.78571971  0.88339744  0.09699504
   0.84522119  0.90008836  0.58323585
   0.36354579  0.10458995  0.33172891
   0.30694873  0.10922603  0.84692108
   0.29419370  0.61336976  0.33585432
   0.31465522  0.61274282  0.81236215
   0.82345684  0.12771212  0.34956689
   0.81364446  0.11802643  0.83147575
   0.83265443  0.61213412  0.34401623
   0.84153837  0.63957313  0.84524305
   0.05877140  0.33205161  0.34679170
   0.05328994  0.37425586  0.85983260
   0.06593110  0.90463167  0.34566601
   0.07118961  0.87979233  0.84986802
   0.58472387  0.39890341  0.33833900
   0.58073451  0.36501526  0.84183364
   0.56719029  0.86091683  0.37334213
   0.56557965  0.90509081  0.84842284
