Si CD                                   
           1
    10.957039    0.069085    0.075069
     0.000000   10.914769    0.053838
    -0.000000   -0.000000   10.902480
   Si
    64
Direct configuration=   910
   0.43178513  0.45663542  0.46270411
   0.42663277  0.46076235  0.97682154
   0.42564716  0.96488837  0.46838710
   0.41868414  0.95821101  0.96747755
   0.93014048  0.45797819  0.47997665
   0.92200587  0.45771931  0.96903502
   0.92690949  0.96144150  0.46561359
   0.91967559  0.95359102  0.97396415
   0.17435513  0.20640460  0.47066903
   0.17459968  0.20629053  0.97590251
   0.18268990  0.70689636  0.46865895
   0.17167426  0.70960581  0.98078165
   0.67859050  0.19981865  0.48591046
   0.67453106  0.19986759  0.97544072
   0.67214766  0.71078284  0.47581896
   0.67246362  0.70089325  0.97341451
   0.17781233  0.45171653  0.21699392
   0.17894708  0.45701762  0.72420669
   0.17208211  0.95864644  0.22943065
   0.18072557  0.95394565  0.72575166
   0.67330654  0.45900436  0.22499359
   0.67316838  0.46838183  0.72876686
   0.68139801  0.95384945  0.22788043
   0.67061428  0.95928875  0.72704919
   0.42662952  0.19918759  0.22014804
   0.42419283  0.21782598  0.72149262
   0.42080716  0.71708198  0.21824045
   0.42990786  0.71064425  0.72950610
   0.92984295  0.19785420  0.21880772
   0.93501142  0.20833062  0.71892297
   0.91659798  0.70701187  0.23240187
   0.93392584  0.71173713  0.72247969
   0.05548868  0.07208989  0.09596349
   0.05513756  0.07149208  0.59605038
   0.04229982  0.58453180  0.10254526
   0.06023564  0.58949477  0.59703590
   0.54746856  0.06824561  0.10119546
   0.54601530  0.08454023  0.59791094
   0.54975729  0.57927183  0.10864442
   0.55317334  0.58602811  0.60259481
   0.31064022  0.33826594  0.10391451
   0.30352117  0.33414701  0.59112055
   0.29242224  0.83821005  0.10253781
   0.30200412  0.83741765  0.59412893
   0.80051493  0.33197812  0.10143738
   0.80055550  0.33221152  0.60651380
   0.79385126  0.82590503  0.09147785
   0.79911784  0.83575878  0.60236975
   0.29895270  0.08368953  0.34679146
   0.30126419  0.09741646  0.83941571
   0.30380703  0.57888787  0.34083523
   0.30499525  0.58506268  0.84909528
   0.80179976  0.08798915  0.34114953
   0.80500536  0.08548440  0.85111813
   0.79352691  0.57944836  0.35517569
   0.80918292  0.59541398  0.84666771
   0.04714059  0.32638012  0.34674570
   0.05607425  0.33052017  0.84781754
   0.05166372  0.83012501  0.35873312
   0.05625473  0.83332221  0.85134555
   0.55709656  0.32405558  0.34953438
   0.55204279  0.33714190  0.85926050
   0.54949524  0.83404442  0.34791702
   0.54729591  0.83685220  0.85059774
