Si CD                                   
           1
    10.889801   -0.022653   -0.011322
     0.000000   10.945948    0.026267
    -0.000000    0.000000   11.019499
   Si
    64
Direct configuration=  3110
   0.41183890  0.44440952  0.46703088
   0.38263319  0.47179987  0.97963086
   0.38724536  0.97861425  0.46770196
   0.40847248  0.95484333  0.96239851
   0.89011464  0.46002471  0.45633423
   0.90833061  0.46526518  0.97804437
   0.90427050  0.95495223  0.48090890
   0.87082884  0.97214390  0.96423910
   0.16453006  0.21164679  0.45790589
   0.13334162  0.22427522  0.97416087
   0.14130656  0.70043231  0.46785309
   0.13789532  0.71469327  0.96744741
   0.64286295  0.21484729  0.48416997
   0.66030670  0.22301626  0.97549950
   0.63889816  0.71526488  0.45566294
   0.65361758  0.70549142  0.98355010
   0.15563622  0.47148625  0.21053676
   0.14358051  0.44789007  0.71340181
   0.12969617  0.94819473  0.20590829
   0.15144922  0.95123790  0.72008013
   0.65189926  0.46116862  0.20641703
   0.63721354  0.47198300  0.73104607
   0.64241959  0.97098049  0.22672725
   0.64872365  0.96028707  0.70903014
   0.39824926  0.21012123  0.20176486
   0.38369785  0.21461631  0.72833587
   0.39445814  0.70394510  0.21550378
   0.40046617  0.72535983  0.71900672
   0.89940338  0.21677428  0.23992534
   0.88855727  0.20757767  0.71950756
   0.89260673  0.71714875  0.22350588
   0.89452921  0.70149371  0.72612715
  -0.00138259  0.09049724  0.09972171
   0.03771227  0.09260467  0.59876478
   0.02558656  0.58955246  0.09495724
   0.00932183  0.57507712  0.59327448
   0.53760939  0.08379191  0.08246275
   0.51696457  0.09516057  0.60052081
   0.52212663  0.57770157  0.09125670
   0.52350309  0.59334886  0.59242184
   0.26638496  0.33544184  0.08930705
   0.27098089  0.34516308  0.58805361
   0.28068371  0.82924273  0.09099934
   0.26565672  0.83188858  0.58114807
   0.78556557  0.33394333  0.09770081
   0.77485286  0.33805212  0.60952432
   0.75898977  0.84354179  0.10269878
   0.76732077  0.82059322  0.58655851
   0.26846821  0.06469049  0.31440004
   0.26610870  0.07490842  0.85440487
   0.27712609  0.57909102  0.35215090
   0.26286460  0.59303910  0.84091811
   0.78595142  0.08407219  0.35950153
   0.76325100  0.08742835  0.82734636
   0.76997206  0.59156359  0.33539332
   0.76812268  0.58520817  0.85018227
   0.03713172  0.34257233  0.34421967
   0.01535927  0.32907256  0.83336015
   0.02446457  0.83315946  0.35059953
   0.00533840  0.84759366  0.83205481
   0.50739493  0.33378889  0.31832437
   0.50445419  0.34949096  0.85338244
   0.49988382  0.84473136  0.35458549
   0.53815675  0.83084616  0.85090820
