Si CD                                   
           1
    10.949044   -0.078009   -0.044116
     0.000000   10.889517    0.006121
    -0.000000    0.000000   10.955306
   Si
    64
Direct configuration=  4510
   0.51996197  0.41976053  0.44402179
   0.52405949  0.39225743  0.93363108
   0.50246598  0.91078140  0.43722571
   0.51012467  0.92694749  0.94409592
   1.02583037  0.39913229  0.42645433
   1.01659446  0.42709780  0.96571184
   1.01711690  0.91892670  0.46117605
   1.01530703  0.91268159  0.93411073
   0.27841009  0.16415445  0.46036682
   0.26830992  0.16965039  0.97322197
   0.26565291  0.66756779  0.44791708
   0.27185803  0.65230456  0.96907720
   0.76621777  0.16884288  0.45309973
   0.76884622  0.17038388  0.95361505
   0.77493393  0.67585629  0.45710162
   0.76308868  0.66681514  0.96304745
   0.28229887  0.41616853  0.20536848
   0.28608156  0.40058744  0.70719638
   0.28075591  0.91809241  0.20238339
   0.28237803  0.91154951  0.69253350
   0.78806213  0.41035903  0.19743788
   0.78808970  0.41571723  0.69304444
   0.75954090  0.91089966  0.20754852
   0.76530773  0.90243522  0.70410081
   0.53105028  0.15079133  0.20379820
   0.51693253  0.15319456  0.69425794
   0.51097413  0.64871052  0.20116064
   0.51832625  0.66288966  0.69963893
   1.02226444  0.13748342  0.20485688
   1.02445574  0.16240211  0.70198687
   1.01983314  0.66696096  0.21482172
   1.03287197  0.63615192  0.71260553
   0.15133415  0.03302334  0.06978587
   0.14749167  0.03671982  0.58974362
   0.12925332  0.53415548  0.09695056
   0.15978140  0.51864820  0.56262483
   0.64039633  0.02504323  0.06203912
   0.64019147  0.02923940  0.57445736
   0.65166347  0.51791214  0.07687376
   0.65098696  0.54444323  0.58058173
   0.41159514  0.27608302  0.08635523
   0.40066394  0.29746201  0.57471955
   0.39290214  0.80118835  0.08200098
   0.39843702  0.78245652  0.56685843
   0.91623489  0.29013087  0.09401740
   0.91264310  0.28377045  0.57124054
   0.89958437  0.79777735  0.07142035
   0.90568302  0.78643523  0.58578163
   0.40342868  0.05456296  0.33101854
   0.38354335  0.05104649  0.83882545
   0.38995220  0.54205022  0.32100775
   0.39324063  0.54096251  0.82753304
   0.87855135  0.04721875  0.33150788
   0.88875758  0.03862722  0.81410855
   0.89989426  0.54989207  0.33170967
   0.89125208  0.54201730  0.84111983
   0.16991910  0.28821176  0.33193586
   0.14091373  0.30787700  0.83060832
   0.14176348  0.79690914  0.32500368
   0.15218747  0.77233996  0.81454774
   0.65332202  0.29122989  0.31108012
   0.64866546  0.27634200  0.81131414
   0.63755568  0.78391101  0.33208857
   0.64284233  0.79320887  0.84388605
