Si CD                                   
           1
    10.936862    0.021133   -0.132267
     0.000000   11.053538   -0.021251
    -0.000000    0.000000   10.833798
   Si
    64
Direct configuration=  2910
   0.38134564  0.45345943  0.47349711
   0.37721560  0.45363201  0.95469453
   0.37352083  0.95267076  0.47313720
   0.37514739  0.96271994  0.97824838
   0.89620744  0.45503119  0.47047359
   0.89263966  0.46605132  0.97394225
   0.88061114  0.97022138  0.48072530
   0.88141775  0.95793482  0.95894829
   0.14245301  0.19526556  0.47059200
   0.13798418  0.20413541  0.95543755
   0.13109127  0.71193959  0.46721745
   0.13886248  0.70399346  0.97194915
   0.62922312  0.20844717  0.44943955
   0.64178046  0.21057575  0.96475909
   0.64098078  0.71662721  0.45615694
   0.62019599  0.69294093  0.97750273
   0.15440676  0.45662032  0.22768666
   0.12657453  0.45613313  0.71912111
   0.12103432  0.96837850  0.22178961
   0.10981486  0.94336811  0.72794089
   0.63374533  0.44890730  0.22578156
   0.63027571  0.45595338  0.71203921
   0.64833310  0.95853614  0.20858906
   0.62353775  0.95547449  0.71542282
   0.37365383  0.20187986  0.20765646
   0.36206825  0.20270679  0.71166882
   0.37522832  0.72115116  0.22625160
   0.38391805  0.71290722  0.72244471
   0.89910764  0.20607534  0.20505153
   0.87778934  0.20789068  0.72815242
   0.87349864  0.71693906  0.21819732
   0.86571391  0.71451565  0.74085660
   0.01425801  0.08105802  0.08681466
   0.00531057  0.09493327  0.60284097
   0.00974345  0.58142790  0.11958790
   0.00462157  0.60025129  0.60795527
   0.51337181  0.09320233  0.09046584
   0.51153141  0.08781446  0.59248194
   0.49869528  0.57715193  0.11209868
   0.50571583  0.58966866  0.59265503
   0.24967030  0.33344286  0.08222741
   0.23893587  0.33370253  0.58414074
   0.25299213  0.84518552  0.09927877
   0.24660936  0.84349956  0.61296494
   0.75888935  0.32556239  0.10102636
   0.75100016  0.32637503  0.59053452
   0.75100920  0.83377077  0.08825803
   0.75169117  0.83920310  0.59893411
   0.26269447  0.07441106  0.33834871
   0.26270711  0.06126383  0.83065955
   0.26712659  0.59557891  0.35193898
   0.25525023  0.59114268  0.83657781
   0.77055645  0.07618131  0.33893040
   0.74932532  0.07363270  0.84464436
   0.76664713  0.58859975  0.34965020
   0.74932929  0.57676969  0.84919435
   0.02106104  0.32506580  0.35019175
   0.01150874  0.32733009  0.83922533
  -0.00724835  0.84913561  0.34499581
   0.00861885  0.81463161  0.85911794
   0.49093279  0.32813065  0.33871283
   0.50062309  0.31451790  0.83731282
   0.51009311  0.83180913  0.34245916
   0.50049717  0.83364892  0.85780991
