Si CD                                   
           1
    10.960313    0.019323   -0.099666
     0.000000   10.885235   -0.075125
    -0.000000   -0.000000   10.995278
   Si
    64
Direct configuration=  1110
   0.42603204  0.45525859  0.47627990
   0.42013254  0.45631415  0.97899815
   0.41765620  0.96255710  0.48003365
   0.41621843  0.95984797  0.97726464
   0.92815576  0.46091429  0.46667311
   0.91728472  0.45282982  0.96964000
   0.92232703  0.95249797  0.47120875
   0.92128881  0.95619312  0.96892886
   0.16845862  0.20464644  0.46924289
   0.16665251  0.20665652  0.97148149
   0.17248847  0.70782665  0.48395234
   0.17853660  0.70138408  0.97230404
   0.66638065  0.20640656  0.47685938
   0.68324220  0.20089764  0.97794065
   0.67642455  0.70050668  0.47836375
   0.66754703  0.70803496  0.97386206
   0.17853676  0.45397631  0.23002530
   0.16339413  0.45155784  0.72029459
   0.16773391  0.95467675  0.23191409
   0.17102533  0.94799746  0.71408208
   0.66387404  0.45454165  0.21799712
   0.68506272  0.44849800  0.72185782
   0.66973424  0.95251981  0.22813166
   0.66384656  0.95744897  0.73193760
   0.42413633  0.20284245  0.22183746
   0.41617952  0.20655169  0.72955253
   0.41904306  0.70860696  0.22729494
   0.41898600  0.70062286  0.72606431
   0.92434764  0.20994602  0.22345096
   0.91518097  0.20170129  0.71474185
   0.92774034  0.70072219  0.22067327
   0.92026510  0.70676923  0.72777404
   0.04662558  0.07811374  0.09925587
   0.04976287  0.07909543  0.59523826
   0.05561217  0.57352258  0.09676488
   0.05003438  0.58664818  0.60290234
   0.55393406  0.07764066  0.10302570
   0.53739695  0.08397143  0.60958317
   0.54848451  0.58900171  0.09859862
   0.55293958  0.58522501  0.60376529
   0.29925214  0.32588782  0.10332485
   0.29534815  0.32794635  0.60168762
   0.29874522  0.82579005  0.11225413
   0.30288615  0.83159737  0.59830969
   0.79884048  0.33267261  0.10630633
   0.80797302  0.32876401  0.58966071
   0.79596480  0.83165168  0.09799574
   0.79295153  0.83402939  0.60708681
   0.29969624  0.08226299  0.35385141
   0.27888017  0.07898749  0.84347514
   0.30004519  0.58338874  0.35716092
   0.29514178  0.57459331  0.84584317
   0.79550239  0.08778654  0.34753990
   0.79106350  0.08345810  0.84752063
   0.80194409  0.57829093  0.34628730
   0.79311732  0.58294239  0.85222774
   0.05407842  0.33094017  0.34618186
   0.04149642  0.32996596  0.84588242
   0.05203206  0.82194484  0.35432983
   0.04428421  0.82659229  0.84855198
   0.54547957  0.33447948  0.34416911
   0.55750760  0.33628097  0.85564322
   0.54835755  0.83000824  0.35050039
   0.53765273  0.83726527  0.85067623
