Si CD                                   
           1
    11.049579    0.101012    0.190327
     0.000000   10.893242   -0.046804
    -0.000000    0.000000   11.097891
   Si
    64
Direct configuration=  7510
   0.38807460  0.40742092  0.44199587
   0.39762166  0.38677230  0.95701427
   0.37526541  0.89503264  0.44489831
   0.39331109  0.90153306  0.93141755
   0.89311872  0.40964806  0.44061461
   0.88777511  0.39361629  0.93748085
   0.89736425  0.91414293  0.44696942
   0.91829036  0.89725865  0.93092372
   0.15773268  0.15235416  0.43568763
   0.15306130  0.16391338  0.93885044
   0.15716652  0.64415624  0.44047078
   0.14127196  0.63689925  0.94997868
   0.64733977  0.11718139  0.46277639
   0.64630847  0.13353134  0.95066092
   0.64358277  0.63239671  0.45344419
   0.63482736  0.64753114  0.93640755
   0.14325757  0.39945099  0.18653360
   0.15663669  0.39289298  0.69497606
   0.12134787  0.89030709  0.19344535
   0.15676838  0.88605186  0.70824364
   0.64730728  0.38211739  0.21433734
   0.64422927  0.39155727  0.69796462
   0.66612796  0.87809673  0.19675918
   0.62633754  0.88609763  0.70713546
   0.39914968  0.11528788  0.19198828
   0.40964027  0.13776450  0.70555281
   0.38911162  0.64523183  0.19406504
   0.37853317  0.64291282  0.68476551
   0.88900491  0.15445071  0.19210871
   0.89767262  0.15093128  0.68064920
   0.88839140  0.65002723  0.19518469
   0.90481895  0.65770709  0.70476869
   0.02016520  0.02444791  0.07127469
   0.05166690  0.01937668  0.56569758
   0.01211861  0.49555534  0.05488087
   0.02468249  0.52694479  0.56464367
   0.54383431 -0.01666650  0.06453120
   0.51352900 -0.00000259  0.56577466
   0.53213230  0.50982841  0.07317168
   0.51961766  0.51277236  0.56905095
   0.28311962  0.25398518  0.07740475
   0.28722435  0.26167068  0.55982879
   0.25853488  0.75368893  0.05877516
   0.26527047  0.77327989  0.56911727
   0.76009575  0.27201657  0.07044419
   0.77109152  0.27512568  0.55277894
   0.78545736  0.75649363  0.04416861
   0.79134914  0.77149239  0.57495614
   0.25149666  0.00308161  0.31234679
   0.26411690  0.03459934  0.81069562
   0.27359355  0.50335094  0.31401755
   0.27451069  0.51347509  0.82450706
   0.77098536  0.03751152  0.31746212
   0.77757673  0.00188854  0.81620656
   0.76994750  0.51466722  0.32256378
   0.76230920  0.52564376  0.83511700
   0.02118965  0.26563140  0.31520287
   0.01791143  0.26588059  0.81061453
   0.01601976  0.75176197  0.32943655
   0.04168068  0.76223421  0.83195264
   0.49991487  0.25838989  0.33317063
   0.52459997  0.25595727  0.82926037
   0.51257499  0.78310444  0.33144886
   0.48484761  0.74964148  0.82219046
