Si CD                                   
           1
    10.878222   -0.071554    0.018669
     0.000000   10.857326   -0.084651
    -0.000000    0.000000   11.277872
   Si
    64
Direct configuration=  5710
   0.49543351  0.47140634  0.45705183
   0.50539194  0.48302707  0.99384544
   0.50706049  0.97327272  0.47440442
   0.50488572  0.96295148  0.97308980
   1.00292060  0.47837520  0.47152883
   1.00224138  0.46869890  0.95237799
   0.98877208  0.97363620  0.46343930
   0.99001277  0.97449274  0.97227907
   0.25304220  0.20779329  0.46519306
   0.25263092  0.23476962  0.97793392
   0.25032354  0.73569929  0.48182441
   0.26748794  0.69160362  0.98641201
   0.74556468  0.21123185  0.48747952
   0.75781596  0.21478926  0.95204069
   0.74040032  0.69569016  0.48306291
   0.74112047  0.72730509  0.97633955
   0.25186647  0.47252442  0.23411655
   0.23676017  0.47976815  0.71652623
   0.23511542  0.97784958  0.23580972
   0.23926778  0.96099080  0.73268999
   0.75092082  0.44310575  0.23116764
   0.73636769  0.45232980  0.73469366
   0.74667872  0.95063631  0.22325790
   0.75175573  0.98499792  0.72411788
   0.49173144  0.19535497  0.21302425
   0.47577408  0.23287563  0.73315893
   0.48757824  0.73747171  0.22975696
   0.50068046  0.71421135  0.73088188
   0.97850079  0.23795692  0.23588734
   1.00594296  0.22835074  0.70809893
   1.00580541  0.70088406  0.22389178
   1.01288839  0.72774703  0.73101882
   0.11973846  0.10284194  0.11189449
   0.12529020  0.08226805  0.58358546
   0.11803472  0.56572919  0.08768537
   0.12461340  0.60523809  0.59366587
   0.63023432  0.08393593  0.08558181
   0.60742758  0.10668675  0.61537676
   0.62063843  0.60306697  0.12513670
   0.61667047  0.57826351  0.59698740
   0.37744162  0.35322042  0.10917206
   0.36103261  0.33673138  0.60109136
   0.36155732  0.85542158  0.10385546
   0.37150867  0.83941240  0.60286347
   0.86987938  0.34344881  0.08951480
   0.86921333  0.33075618  0.59869902
   0.87825609  0.83249440  0.12164306
   0.87730935  0.83901396  0.60434586
   0.37307849  0.08491330  0.35003620
   0.37200054  0.09096373  0.87191625
   0.37073314  0.61964853  0.35516138
   0.37906774  0.57561763  0.84733355
   0.86526207  0.09206165  0.35817153
   0.88067635  0.09894900  0.84327044
   0.86836067  0.59412696  0.34555414
   0.88400069  0.59055504  0.85042158
   0.13768972  0.35360612  0.35462699
   0.12452349  0.34238168  0.84143509
   0.11141007  0.84096010  0.35023067
   0.10992682  0.82753915  0.87117765
   0.61408277  0.33183603  0.34381703
   0.60305210  0.34125643  0.87619520
   0.61720789  0.83873786  0.35443269
   0.63406719  0.84740214  0.84537100
