Si CD                                   
           1
    11.230334   -0.007578    0.023432
     0.000000   10.721495   -0.073944
    -0.000000    0.000000   10.958745
   Si
    64
Direct configuration=  6510
   0.47779406  0.48014959  0.46507393
   0.49219263  0.52219026  0.96338983
   0.47274878  1.00060242  0.46201200
   0.49547499  1.00546949  0.95664912
   0.98149878  0.49154883  0.45405606
   0.97034224  0.50095537  0.95441437
   1.00068567  1.00664862  0.48205584
   0.97520208  1.01091170  0.96431949
   0.22543868  0.24057184  0.46315357
   0.24739544  0.25781236  0.97818893
   0.23401295  0.74403640  0.45169030
   0.23480160  0.76991987  0.96669195
   0.73815194  0.24391041  0.43460210
   0.75838538  0.24598088  0.96109654
   0.74014381  0.73160708  0.46352256
   0.73438810  0.75958986  0.95720198
   0.25907917  0.48511800  0.22212684
   0.23642582  0.50634536  0.70330408
   0.21933587  0.98362049  0.17639888
   0.23410741  1.00500916  0.70906540
   0.74014765  0.49636547  0.22071670
   0.73983333  0.49050464  0.72254048
   0.72853964  1.00364944  0.22604336
   0.74650994  1.00130823  0.68423927
   0.46783244  0.24148030  0.19941290
   0.49549742  0.26117256  0.72586659
   0.50373578  0.74893191  0.22787124
   0.47984146  0.73970096  0.71835743
   1.01884511  0.25035624  0.21590330
   0.98908845  0.26481826  0.71199357
   0.98051370  0.74315361  0.22105524
   1.00853567  0.76815755  0.72570310
   0.11039703  0.13289652  0.07385959
   0.10768597  0.14151755  0.60758855
   0.13129390  0.61761974  0.08273123
   0.10259999  0.62330451  0.57647112
   0.62850326  0.11400387  0.07490064
   0.62330961  0.11327687  0.58175670
   0.61436617  0.62771662  0.09010580
   0.61064811  0.61779079  0.58819766
   0.37108088  0.37360882  0.08286687
   0.35178336  0.33972275  0.59369841
   0.37363766  0.86587236  0.09375346
   0.36738463  0.86571780  0.60418753
   0.88544874  0.38567659  0.10454138
   0.85217838  0.36918436  0.57407905
   0.86163271  0.86629180  0.08447187
   0.88287151  0.86140687  0.59343483
   0.33957647  0.11417413  0.32665091
   0.36420879  0.13824291  0.84002341
   0.38279401  0.62435936  0.34795592
   0.34586772  0.63454897  0.84499616
   0.86929648  0.11807027  0.33351989
   0.86288706  0.12466098  0.82200548
   0.85903852  0.60659613  0.34001286
   0.86557018  0.62933154  0.85059572
   0.11523490  0.39329589  0.34237184
   0.11713707  0.38452237  0.84679244
   0.09675975  0.86519771  0.33017319
   0.11603591  0.89594343  0.82840796
   0.59858018  0.36501866  0.32865524
   0.61461351  0.38054460  0.84623235
   0.61894471  0.88205057  0.34204876
   0.61198684  0.89556526  0.81359845
