Si CD                                   
           1
    10.906763    0.021836   -0.042835
     0.000000   11.017118   -0.051394
    -0.000000    0.000000   11.158883
   Si
    64
Direct configuration=  8310
   0.41622105  0.40372844  0.39316000
   0.41366091  0.42500267  0.92436626
   0.38977277  0.89670478  0.41446157
   0.39032788  0.90729397  0.89859444
   0.92152558  0.43717944  0.39695554
   0.90730069  0.39556456  0.90595068
   0.92239964  0.92220245  0.40519596
   0.92621658  0.93325733  0.91028806
   0.18133106  0.17784806  0.39760502
   0.17777892  0.17583957  0.92818961
   0.17399866  0.66716853  0.40221177
   0.17916419  0.66280650  0.91373447
   0.68451966  0.17044844  0.43778398
   0.66285035  0.18296060  0.93650835
   0.65672037  0.66276586  0.41824734
   0.69729165  0.68290137  0.93885347
   0.17441062  0.42466047  0.16031520
   0.18091131  0.43884211  0.64997947
   0.18277864  0.92635963  0.16785808
   0.16049613  0.90628900  0.66256096
   0.66130202  0.41802713  0.16914714
   0.67440493  0.40402270  0.66940145
   0.64058469  0.94427770  0.17092078
   0.65287375  0.91068068  0.67894212
   0.45834929  0.17490351  0.13570827
   0.41725603  0.15513286  0.67959010
   0.43406241  0.64460384  0.14499288
   0.43239420  0.66635121  0.68361015
   0.92879854  0.15679486  0.14692844
   0.93280394  0.15863557  0.65933545
   0.92103849  0.68050785  0.16715220
   0.93266757  0.67127348  0.65815880
   0.06547299  0.04382378  0.02378628
   0.04507203  0.04854614  0.51076133
   0.02935144  0.55212223  0.02609134
   0.05447683  0.55419063  0.52407145
   0.52592103  0.04446568  0.01356211
   0.52492909  0.01934849  0.54301983
   0.56773661  0.53730252  0.01661620
   0.55249401  0.50479609  0.54064065
   0.30802909  0.30960716  0.04639318
   0.29099750  0.28815617  0.54038740
   0.28935403  0.77984610  0.04007429
   0.29571189  0.75001823  0.54416887
   0.80521264  0.29344602  0.05853827
   0.81346344  0.31112872  0.54410648
   0.81360169  0.83693120  0.05325887
   0.79060016  0.80283906  0.52572167
   0.31536546  0.04473315  0.26469536
   0.27863060  0.04208310  0.78032513
   0.29064732  0.53229028  0.27338295
   0.28156487  0.53548614  0.78470607
   0.80557873  0.04603686  0.28406936
   0.78892995  0.07153031  0.78407884
   0.79424794  0.55584735  0.27348407
   0.79526599  0.53908920  0.79708054
   0.03104190  0.30271595  0.26908619
   0.05977431  0.27044399  0.77815029
   0.05274085  0.81317862  0.29372016
   0.04583445  0.79288596  0.79627892
   0.55368812  0.26893846  0.29510978
   0.53353861  0.28617838  0.79422304
   0.52683833  0.77555646  0.27127278
   0.55042201  0.77974906  0.80165555
