Si CD                                   
           1
    10.975829    0.030919    0.059638
     0.000000   10.929959   -0.018747
    -0.000000    0.000000   10.981220
   Si
    64
Direct configuration=  2510
   0.41819783  0.48506144  0.47626382
   0.42937381  0.47327399  0.97168698
   0.42653011  0.98114226  0.46503129
   0.43860758  0.97158001  0.94266550
   0.93827812  0.47934263  0.45464879
   0.92659357  0.48617017  0.95476189
   0.92476958  0.98502264  0.45415721
   0.92504343  0.97551083  0.96425634
   0.16450454  0.23001774  0.47686147
   0.17524746  0.22243559  0.97048202
   0.16934139  0.73278386  0.46751601
   0.16594120  0.73164862  0.96425691
   0.66369903  0.24469370  0.46867540
   0.67584506  0.22024880  0.96797231
   0.67236033  0.73175828  0.47854245
   0.66558555  0.73500061  0.97641699
   0.18220706  0.47056060  0.20526581
   0.16429485  0.45946718  0.72280050
   0.18605955  0.98109888  0.21003887
   0.17932525  0.96582165  0.71584906
   0.67858330  0.48394823  0.22017185
   0.68022875  0.46563297  0.72323770
   0.68524204  0.96569578  0.22466533
   0.68321809  0.98863212  0.70605355
   0.42928287  0.22386046  0.21274652
   0.41950020  0.22996230  0.72747249
   0.42284389  0.73072193  0.22454421
   0.42037627  0.71186285  0.71406982
   0.91625713  0.23049266  0.21387091
   0.93624763  0.23961422  0.71145290
   0.92192561  0.71674793  0.20886507
   0.93469740  0.71984132  0.71243750
   0.05172933  0.09955507  0.08739650
   0.04970259  0.09098351  0.60101553
   0.05713117  0.59835480  0.08356494
   0.06616504  0.59887119  0.58964586
   0.56326128  0.08675691  0.09262660
   0.54123159  0.10941447  0.59610771
   0.55510198  0.60527347  0.09919560
   0.56100364  0.61101704  0.59754838
   0.29688369  0.33854415  0.08248441
   0.29502372  0.34975853  0.59248127
   0.30765689  0.85323561  0.08309913
   0.30672709  0.84313189  0.58616482
   0.79372662  0.35765776  0.08064858
   0.79951286  0.36379988  0.58873791
   0.80781385  0.85262267  0.08944659
   0.80934126  0.85527036  0.58813999
   0.29050653  0.11055350  0.34991279
   0.30142189  0.09422301  0.83814458
   0.29122258  0.60487339  0.33421983
   0.29431477  0.60338228  0.85275066
   0.79108939  0.12360238  0.33902576
   0.81176805  0.10922698  0.82365443
   0.80542261  0.61355669  0.34535396
   0.79746475  0.61358075  0.84569339
   0.04861714  0.34463201  0.32501661
   0.04602154  0.34356572  0.85367681
   0.05140871  0.85436306  0.32749019
   0.04619697  0.84986079  0.83454616
   0.54094599  0.35292638  0.34275501
   0.55252362  0.34696282  0.83850142
   0.55506269  0.85264973  0.34308179
   0.55839443  0.83662220  0.82296043
