Si CD                                   
           1
    11.251649   -0.229611    0.006619
     0.000000   10.913969    0.279264
    -0.000000    0.000000   10.921403
   Si
    64
Direct configuration=  8710
   0.40498642  0.46429289  0.46157363
   0.41217773  0.46808615  0.99157070
   0.40844641  0.95648279  0.47252653
   0.38972272  0.96158018  0.97460539
   0.89149604  0.42627452  0.46938614
   0.88754127  0.47601989  0.97316986
   0.89155772  0.98903970  0.47576287
   0.91386173  0.95997647  0.96605903
   0.14677801  0.23028688  0.46842119
   0.13204151  0.22896005  0.97454384
   0.13959842  0.72978833  0.46366361
   0.13410961  0.72032306  0.96379273
   0.64919001  0.23960589  0.45136865
   0.65751755  0.21483038  0.97226694
   0.63909482  0.70676732  0.46791394
   0.66562524  0.72892288  0.95881299
   0.16496945  0.47685468  0.21223019
   0.13530502  0.46842627  0.71651297
   0.14741929  0.96642858  0.19871607
   0.12118940  0.96638696  0.71526418
   0.64511533  0.48288917  0.23577267
   0.62894090  0.47475131  0.72656942
   0.64892238  0.98267369  0.23599685
   0.65837886  0.98224048  0.71250676
   0.38331380  0.22049391  0.21903368
   0.40390540  0.21334193  0.72269093
   0.39927354  0.73141161  0.20271735
   0.37625744  0.72358157  0.71845808
   0.91285546  0.22333034  0.21321887
   0.88484470  0.22741550  0.74481673
   0.91876176  0.69873011  0.22360934
   0.88049968  0.71929927  0.67517418
  -0.00073571  0.09104201  0.09323134
   0.02152898  0.11099936  0.59592445
   0.02812530  0.58345198  0.08266489
   0.01326740  0.57667172  0.58527067
   0.52081641  0.10643622  0.10195807
   0.52756317  0.09687522  0.57595979
   0.51565559  0.60787971  0.09597315
   0.51010271  0.60137009  0.61215057
   0.26779060  0.32486527  0.08585905
   0.27463479  0.32832350  0.61633524
   0.26791953  0.84473717  0.08060525
   0.26967207  0.84620168  0.60130600
   0.76562620  0.35366865  0.10685995
   0.76628455  0.36447803  0.61344814
   0.78833161  0.85767334  0.10628235
   0.75771076  0.85358136  0.58332467
   0.27237555  0.09369211  0.34750085
   0.24440929  0.09406707  0.85184913
   0.27645329  0.61731360  0.34585398
   0.26194752  0.57882708  0.86650504
   0.77388273  0.12123326  0.34708684
   0.78135191  0.07634470  0.85414774
   0.78372670  0.59359466  0.37011829
   0.77228860  0.59625017  0.82879397
   0.02985657  0.35748132  0.33238260
   0.01259096  0.35401080  0.84509513
   0.02408885  0.85517643  0.33608117
   0.02266103  0.81684759  0.82549553
   0.49774375  0.35186799  0.32920821
   0.52119005  0.33226371  0.83988839
   0.52593178  0.84890281  0.33337282
   0.51143672  0.82808646  0.84038452
