Si CD                                   
           1
    11.097281   -0.041746   -0.012303
     0.000000   10.873508   -0.246607
    -0.000000    0.000000   10.934381
   Si
    64
Direct configuration=  7310
   0.40554271  0.38022093  0.49526703
   0.41032116  0.39435592  0.98149351
   0.42022046  0.87830286  0.51553900
   0.40325728  0.88180572  0.99256887
   0.91233419  0.38492751  0.50272460
   0.89512029  0.40547492  0.99443587
   0.87278579  0.90375590  0.48372111
   0.91213883  0.87648718  0.99822000
   0.14948435  0.12273235  0.49624637
   0.16402224  0.12241053  1.01026506
   0.15526493  0.64492135  0.50247312
   0.14875206  0.65406500  0.98954670
   0.65897028  0.15342927  0.51205311
   0.64564195  0.13295185  0.99013939
   0.64584657  0.62409564  0.48744029
   0.66250963  0.65135845  1.00336783
   0.15632594  0.39761503  0.24142233
   0.13828648  0.39915560  0.77251228
   0.15401679  0.87487477  0.24468429
   0.15849711  0.89347184  0.75164259
   0.66381480  0.37578627  0.22725486
   0.66860697  0.41460990  0.75573490
   0.65056921  0.90485079  0.24630829
   0.66299559  0.88984593  0.72524752
   0.38477164  0.15450925  0.24324854
   0.41417281  0.12812308  0.73943372
   0.40571307  0.62916482  0.24809702
   0.37375606  0.62428614  0.74499688
   0.90293112  0.14767948  0.23015157
   0.92934425  0.15242249  0.74961588
   0.90585006  0.64910298  0.26528566
   0.91446297  0.63857945  0.73335040
   0.03291266 -0.00060459  0.12618016
   0.01164992  0.00430773  0.62081336
   0.02402232  0.53466710  0.12347586
   0.02111710  0.51138190  0.62105823
   0.51737148  0.02200186  0.11502358
   0.53574915  0.00364965  0.62510099
   0.53670989  0.50254867  0.10442419
   0.52494027  0.52300928  0.62323688
   0.26429795  0.28219804  0.11141247
   0.25857648  0.25636583  0.62361178
   0.28244265  0.75963656  0.11730327
   0.26554467  0.77252006  0.62695515
   0.77049688  0.26319292  0.09694940
   0.79755138  0.28087573  0.63859031
   0.77719406  0.76009654  0.11818895
   0.78377396  0.74775283  0.59654084
   0.30604982 -0.00627980  0.37547220
   0.29773121  0.03371043  0.88281691
   0.27160095  0.51806139  0.37056956
   0.26056757  0.51315406  0.88030439
   0.75172635  0.03745345  0.36770129
   0.78978351  0.00739240  0.87345478
   0.77543287  0.50619995  0.35931098
   0.79403888  0.53584286  0.87838401
   0.03054684  0.25891774  0.36242017
   0.02837105  0.26501698  0.90505888
   0.02085514  0.78234499  0.38712215
   0.02984161  0.76320768  0.86457343
   0.52736929  0.26508528  0.34996646
   0.53422284  0.27271836  0.85377119
   0.54743413  0.76726592  0.35843145
   0.54841138  0.77237532  0.86938290
