Si CD                                   
           1
    10.887276   -0.003221   -0.106888
     0.000000   10.995503    0.143834
    -0.000000    0.000000   10.973027
   Si
    64
Direct configuration=  5910
   0.47746903  0.45497225  0.46932181
   0.46069780  0.45582168  0.97850439
   0.49135610  0.95590518  0.46670682
   0.46443971  0.94244080  0.97779429
   0.96017302  0.45761614  0.47456626
   0.96944893  0.45594972  0.98357953
   0.97636629  0.95128045  0.47761238
   0.95365393  0.95410071  0.98987386
   0.21295115  0.21967434  0.47498868
   0.20523988  0.18075615  0.99312783
   0.23524130  0.69449329  0.51251740
   0.23053955  0.71115326  0.97630014
   0.72522291  0.21676076  0.47171808
   0.72858932  0.20273665  0.96605203
   0.71180627  0.69657140  0.47278716
   0.72696701  0.69866556  0.97754901
   0.23899795  0.44828717  0.22060712
   0.21589039  0.46884607  0.73287805
   0.23425565  0.95678956  0.22906745
   0.23542186  0.98255084  0.72816323
   0.73291223  0.46648256  0.22191647
   0.71467385  0.46611080  0.74193708
   0.72594544  0.97965114  0.22596614
   0.72358659  0.95960364  0.72380264
   0.50130015  0.18790572  0.21675859
   0.45806167  0.20735822  0.71889430
   0.48074701  0.70979241  0.23866791
   0.49136524  0.68611743  0.74598010
   0.96777090  0.20984580  0.22582284
   0.99379907  0.21494722  0.71847911
   1.00227852  0.70319119  0.23770845
   0.98669329  0.72465660  0.74277680
   0.08686983  0.06275959  0.11739806
   0.09521026  0.08870890  0.58352616
   0.11355136  0.56278242  0.11265433
   0.08074313  0.59505776  0.61896039
   0.62246979  0.07149225  0.08280282
   0.59665013  0.09115297  0.59690735
   0.60069438  0.58045304  0.10885000
   0.60400118  0.57342639  0.59466276
   0.36174285  0.31390857  0.11146843
   0.34145649  0.35721599  0.60657576
   0.34125286  0.82400434  0.10553625
   0.36872721  0.83397111  0.62078959
   0.83127498  0.31535483  0.11024099
   0.84386095  0.33551353  0.60210117
   0.85525910  0.82371447  0.12307561
   0.83429056  0.82364376  0.60057623
   0.35480005  0.09420799  0.34462242
   0.34828344  0.08217478  0.85653930
   0.35784427  0.57108381  0.34446709
   0.35565398  0.58155667  0.85207112
   0.85449209  0.07864697  0.35299914
   0.84836204  0.09363768  0.82981436
   0.84603390  0.59224163  0.34604135
   0.85907977  0.56933973  0.84131193
   0.09647666  0.33929907  0.35215452
   0.10634760  0.33798189  0.85893864
   0.12283865  0.82393425  0.36692389
   0.11205222  0.84987003  0.85776889
   0.60949191  0.35632797  0.34394388
   0.58753153  0.31327968  0.84222177
   0.60826286  0.83552678  0.33666252
   0.60858145  0.82166030  0.85842161
