Si CD                                   
           1
    10.916991   -0.066935    0.054994
     0.000000   10.842262   -0.137209
    -0.000000    0.000000   11.040673
   Si
    64
Direct configuration=  3710
   0.45793110  0.42346101  0.47061819
   0.44083233  0.45278063  0.98094778
   0.44558643  0.94302323  0.49668525
   0.45277475  0.93796509  0.98177024
   0.95684454  0.44628435  0.47825605
   0.95606352  0.43009616  0.97692780
   0.96271007  0.92042093  0.47738183
   0.95379478  0.94804057  0.98006329
   0.19423736  0.18115109  0.48025498
   0.19698086  0.16779877  1.00226324
   0.21987232  0.66334214  0.50945602
   0.18659129  0.67991521  0.99795191
   0.70732297  0.19337095  0.49495527
   0.69566921  0.18797947  0.98588453
   0.69172053  0.68777462  0.51604307
   0.70694123  0.69595744  0.99197872
   0.20566423  0.42468995  0.24205227
   0.22097059  0.41571923  0.75104715
   0.21239066  0.92227069  0.24560426
   0.18257417  0.94323055  0.75768014
   0.70745284  0.42498690  0.23436290
   0.69304462  0.43605970  0.73958977
   0.72025065  0.92378513  0.23335611
   0.70200860  0.93228713  0.74010635
   0.44648910  0.16957031  0.22246308
   0.44709042  0.18071913  0.72514892
   0.45227435  0.67886279  0.24326702
   0.45802967  0.68394476  0.73720829
   0.95108905  0.17584970  0.24234665
   0.94720094  0.19170713  0.72930058
   0.94423321  0.69150469  0.24893030
   0.95519484  0.66515853  0.74097428
   0.08816523  0.04416496  0.12841937
   0.06358172  0.04838879  0.61777464
   0.06547172  0.54979873  0.11979554
   0.09359837  0.53355274  0.62754842
   0.59257491  0.04398101  0.10606724
   0.59639654  0.06701823  0.61260991
   0.57664542  0.55293733  0.11316295
   0.56901080  0.54660266  0.61339559
   0.32144133  0.30449433  0.10734385
   0.33029978  0.30962596  0.58928903
   0.32669120  0.80239333  0.12006580
   0.32156467  0.81813802  0.62766955
   0.82909382  0.31073116  0.10747141
   0.83108619  0.32582035  0.59924782
   0.84224019  0.80281904  0.10499413
   0.83900790  0.80113220  0.61577740
   0.32247529  0.05677274  0.35609783
   0.32289117  0.05874914  0.86373388
   0.32705530  0.54854181  0.36030226
   0.32859978  0.57788927  0.86282883
   0.83710119  0.05675614  0.36509808
   0.82884143  0.07491151  0.84958384
   0.81284278  0.57563503  0.36096241
   0.82491424  0.55860724  0.85675798
   0.07286426  0.30859428  0.35822736
   0.08548971  0.29966687  0.86197053
   0.10221639  0.79783590  0.37517208
   0.06839359  0.79827919  0.86818839
   0.58745774  0.29562288  0.34271891
   0.55983857  0.31165717  0.84782474
   0.59377963  0.80882674  0.36947744
   0.58343913  0.80540374  0.86960428
