Si CD                                   
           1
    11.017781    0.124051   -0.182299
     0.000000   10.835541    0.157106
    -0.000000    0.000000   11.026389
   Si
    64
Direct configuration=  3510
   0.43626890  0.45003053  0.48711489
   0.44044373  0.46857792  0.99224606
   0.43164080  0.94753000  0.48727427
   0.45393148  0.94328980  0.99493044
   0.92863855  0.44916318  0.49896185
   0.94907489  0.45136671  0.99127193
   0.94580902  0.95233002  0.49468187
   0.93692003  0.94732592  0.99690875
   0.20436019  0.18697683  0.49144371
   0.18913432  0.20353428  0.99531031
   0.20116199  0.71636033  0.47818564
   0.17437652  0.70193461  1.00159920
   0.68348526  0.20073022  0.49207646
   0.68119077  0.20157486  0.97222868
   0.67638348  0.69581644  0.47496796
   0.69668297  0.70339649  0.99552634
   0.18972107  0.42900367  0.25825914
   0.19626043  0.46126424  0.74445137
   0.20727583  0.95269626  0.22678613
   0.18763369  0.92732198  0.73641805
   0.69475976  0.46807409  0.23529266
   0.68667958  0.44813062  0.74830665
   0.67239315  0.95548837  0.23652979
   0.69302423  0.96423160  0.72900108
   0.45570967  0.20889812  0.24645527
   0.43642141  0.18372031  0.73882488
   0.44536830  0.70327922  0.22941060
   0.45035857  0.70892122  0.72854624
   0.93189300  0.19175665  0.23561569
   0.94648172  0.21736682  0.75321201
   0.94644544  0.70121801  0.25472984
   0.91837608  0.69792334  0.74123478
   0.07205380  0.07112643  0.11073016
   0.07335285  0.07427258  0.62911279
   0.06131527  0.56169096  0.13698161
   0.05986193  0.58834766  0.61512572
   0.56003548  0.07985310  0.11045464
   0.55249443  0.07135340  0.59864737
   0.57310350  0.58853008  0.10958997
   0.55766455  0.58047350  0.61108939
   0.32330201  0.32642043  0.11906091
   0.31560503  0.33283497  0.62309881
   0.30753262  0.81825489  0.09721959
   0.31476745  0.81990480  0.62036900
   0.81080848  0.31081484  0.10987024
   0.80692127  0.32419372  0.63515944
   0.80675539  0.82953850  0.12640533
   0.80006211  0.83574046  0.60612350
   0.32267343  0.08369680  0.35659416
   0.31047409  0.05305599  0.87504819
   0.31183819  0.57525304  0.34980680
   0.32040430  0.59178059  0.86881350
   0.80248465  0.07032943  0.36490002
   0.81068273  0.07677962  0.85350275
   0.82340730  0.57412539  0.36770796
   0.81036065  0.56831636  0.87329592
   0.05321895  0.30922666  0.37028433
   0.07416638  0.33343630  0.87660295
   0.06613161  0.84319467  0.36705324
   0.05120247  0.81715905  0.86274651
   0.57757270  0.33595765  0.36555512
   0.55018693  0.32763397  0.86387582
   0.56114677  0.82525640  0.35554792
   0.57627885  0.82330877  0.86284292
