Si CD                                   
           1
    10.921748   -0.093978   -0.185343
     0.000000   10.965556    0.170703
    -0.000000    0.000000   10.971926
   Si
    64
Direct configuration=  4310
   0.51130500  0.40296933  0.48130074
   0.51548980  0.40563559  0.97181256
   0.49097904  0.92930776  0.47663733
   0.51648847  0.90892722  0.97002648
   0.99672982  0.41578263  0.47091668
   1.00014739  0.39717074  0.96220602
   1.02020348  0.90632006  0.44690317
   1.00599010  0.92870518  0.97607018
   0.25072519  0.16321415  0.46884823
   0.26355669  0.17107967  0.96873154
   0.27245862  0.65512418  0.46564806
   0.25253870  0.67265008  0.97776282
   0.76468708  0.15547943  0.46402749
   0.76065692  0.16984945  0.99148992
   0.76662668  0.64785449  0.46947633
   0.77668590  0.66652171  0.96209999
   0.26798121  0.42426911  0.23376318
   0.25792003  0.41577795  0.73829962
   0.24064429  0.91976778  0.22862163
   0.26000910  0.91458843  0.73198140
   0.73637005  0.41012805  0.21293072
   0.76863018  0.40681145  0.72300634
   0.76337651  0.90765963  0.22895467
   0.75782915  0.90596164  0.70661333
   0.50592914  0.17330068  0.20953253
   0.51124953  0.18112266  0.73144244
   0.50581079  0.68029390  0.21568650
   0.48893204  0.66672734  0.72439855
   0.99343501  0.17808471  0.22999886
   1.00694123  0.14937905  0.71375610
   0.99636751  0.64534513  0.22303722
   1.00516366  0.66847086  0.69568825
   0.13772654  0.06657547  0.10434262
   0.13915686  0.03147070  0.59152925
   0.13357061  0.52864787  0.09094313
   0.14566586  0.53557246  0.58690406
   0.64472185  0.03609839  0.09380731
   0.62742957  0.05048340  0.59400607
   0.63525647  0.54552307  0.08975817
   0.63068907  0.52784555  0.60354560
   0.37826701  0.29323683  0.08938017
   0.37190344  0.27971125  0.60114382
   0.37434764  0.80724944  0.10721862
   0.37305555  0.78187415  0.60492065
   0.87972080  0.30529237  0.10984443
   0.88860050  0.28312898  0.58539294
   0.88046726  0.79734320  0.10067903
   0.89335685  0.80532565  0.57113675
   0.36926304  0.03978228  0.33221876
   0.39568210  0.03708055  0.84737191
   0.39679051  0.53883071  0.36323172
   0.36425454  0.54173542  0.86604156
   0.88236071  0.03338186  0.34260544
   0.87684927  0.04019337  0.84269998
   0.87122054  0.52904546  0.33924756
   0.89245412  0.53310228  0.85144037
   0.13039859  0.28824717  0.35078684
   0.11701059  0.27473668  0.84584238
   0.13347564  0.76250386  0.34143665
   0.11116590  0.79205282  0.83716381
   0.62926379  0.28332054  0.34935917
   0.64207904  0.29569826  0.84591682
   0.62564496  0.79326872  0.34663896
   0.63500565  0.79846889  0.84429522
