Si CD                                   
           1
    10.947704    0.050711   -0.051258
     0.000000   10.982878   -0.026180
    -0.000000    0.000000   10.896677
   Si
    64
Direct configuration=  1910
   0.41518248  0.47105231  0.45421189
   0.41852447  0.47694902  0.95548028
   0.40316387  0.97985209  0.47017075
   0.42364155  0.97105438  0.95714438
   0.89960391  0.47848373  0.46502662
   0.91248210  0.47843129  0.95588683
   0.91468352  0.96362814  0.46223147
   0.91409002  0.96134919  0.96312506
   0.15128056  0.21681774  0.46261511
   0.16288394  0.22183223  0.98550000
   0.15057177  0.71646679  0.46113146
   0.16325046  0.73100226  0.96362362
   0.66706848  0.21931396  0.46913939
   0.66583704  0.22312666  0.95844741
   0.64739277  0.72136626  0.45267007
   0.66640280  0.72811672  0.96059300
   0.15903310  0.49443779  0.21058109
   0.15277051  0.45661657  0.71688288
   0.16544769  0.97823243  0.20107535
   0.16087907  0.98382896  0.71710013
   0.66032512  0.45783851  0.20678685
   0.65230603  0.47899109  0.71363057
   0.65296271  0.98643958  0.21897288
   0.65357135  0.97359782  0.69934281
   0.40865015  0.23187811  0.20844091
   0.41070365  0.22353905  0.71434221
   0.40914100  0.72052578  0.20600261
   0.39680540  0.72644054  0.71322078
   0.90964105  0.22295143  0.21361581
   0.90390671  0.22014292  0.72837388
   0.89953819  0.72265000  0.22690541
   0.90927636  0.71901858  0.71439991
   0.02518492  0.09872882  0.08438534
   0.02545596  0.10595148  0.58536586
   0.03324315  0.60468170  0.09162727
   0.02925956  0.59319020  0.59118494
   0.53403684  0.10650636  0.09049926
   0.52823212  0.11108922  0.58679782
   0.54101566  0.60110776  0.09004428
   0.51993132  0.59631666  0.58760288
   0.28646990  0.36880089  0.08841620
   0.28764110  0.34355776  0.57144681
   0.28978341  0.84655200  0.08824290
   0.26700350  0.85654628  0.58696851
   0.79345361  0.34999980  0.08047985
   0.78459399  0.34600390  0.59879563
   0.78600638  0.85286783  0.09461228
   0.77864906  0.84422512  0.57858164
   0.28249059  0.09522995  0.33326720
   0.29769446  0.09899451  0.84073013
   0.29507320  0.59776820  0.33723398
   0.27809623  0.59567460  0.83427912
   0.79056926  0.09671131  0.34670706
   0.78135764  0.07691236  0.83902982
   0.77037745  0.59279361  0.33500684
   0.77604795  0.59839918  0.83566168
   0.03702658  0.34580973  0.33992314
   0.02991070  0.33488265  0.84584927
   0.04055301  0.85270601  0.32574478
   0.03981027  0.84999992  0.82928336
   0.54554534  0.34629177  0.34340565
   0.53463107  0.35115292  0.84044458
   0.52846989  0.85968562  0.32563450
   0.54293760  0.84612411  0.82989162
