Si CD                                   
           1
    10.960164    0.255095    0.037585
     0.000000   10.834719   -0.131534
    -0.000000    0.000000   10.927716
   Si
    64
Direct configuration=  4710
   0.52170603  0.41262142  0.44987088
   0.48184668  0.43147506  0.96388786
   0.49884712  0.94628584  0.45473199
   0.50903469  0.91321715  0.97304854
   1.00484118  0.43710171  0.47561042
   0.99483786  0.43225847  0.95424535
   1.01486445  0.93689287  0.45714081
   0.99489610  0.93066731  0.96001920
   0.25528549  0.18906145  0.47567540
   0.25582690  0.16262300  0.96707028
   0.26889600  0.66405004  0.45128204
   0.22940929  0.67607574  0.96884629
   0.77303857  0.16585538  0.47766222
   0.76674637  0.17824234  0.98997299
   0.75052025  0.68488516  0.48494071
   0.76031732  0.67263454  0.96243917
   0.24709256  0.43210781  0.20693641
   0.23945477  0.42020515  0.73079429
   0.26811027  0.90125587  0.22079430
   0.25393207  0.92085337  0.71604793
   0.75675566  0.41523228  0.23148194
   0.76399060  0.42550954  0.70588377
   0.74685580  0.92754297  0.23239601
   0.75110555  0.93194490  0.72107619
   0.49496438  0.18686017  0.20565744
   0.50322886  0.18696865  0.70375521
   0.52544381  0.67552559  0.20699418
   0.51343279  0.66841421  0.72223015
   1.03397670  0.18652265  0.20513554
   0.99819212  0.17375766  0.73245330
   0.99634994  0.68119051  0.21484301
   0.99549218  0.67579751  0.70743401
   0.13098031  0.03714383  0.09513773
   0.13116365  0.05868191  0.60012339
   0.11659264  0.54638282  0.08286861
   0.13573347  0.56015066  0.59110420
   0.61743493  0.05486615  0.08945468
   0.62528573  0.04359000  0.58974249
   0.64339374  0.52898184  0.07683904
   0.63780624  0.54631920  0.59715836
   0.36918375  0.30615207  0.08290053
   0.37539873  0.31719807  0.58803181
   0.37631184  0.77701264  0.08126163
   0.39895493  0.78232110  0.58831907
   0.89367638  0.30860892  0.09716233
   0.88789376  0.30506012  0.59142604
   0.87245753  0.82146963  0.09096955
   0.87138881  0.82334020  0.59033996
   0.36981356  0.05592149  0.34307247
   0.40065280  0.05483685  0.84133173
   0.40169909  0.54101960  0.33110539
   0.36109414  0.56692899  0.83351246
   0.88792114  0.06362952  0.32404736
   0.86451275  0.06178913  0.84563806
   0.87035756  0.55579360  0.36600268
   0.88628356  0.55962389  0.83002565
   0.14153610  0.30354390  0.33997178
   0.11831610  0.28683378  0.86768072
   0.12816919  0.80291016  0.33453534
   0.11901773  0.79697069  0.83620059
   0.64048641  0.26534218  0.34648621
   0.64079343  0.30432284  0.84151309
   0.62132420  0.79939758  0.35064038
   0.63802921  0.79535905  0.84104293
