Si CD                                   
           1
    11.036763   -0.133671   -0.057070
     0.000000   10.874438   -0.018459
    -0.000000    0.000000   10.919806
   Si
    64
Direct configuration=  5510
   0.51320687  0.44012231  0.45468227
   0.52876913  0.46134285  0.94465017
   0.48871048  0.95662942  0.45264876
   0.51374138  0.95489334  0.97022823
   1.04533006  0.44507458  0.47519877
   1.00696975  0.44767161  0.95768017
   1.03882271  0.95881884  0.44949280
   1.02396232  0.94680821  0.94765661
   0.26618001  0.21556573  0.45754035
   0.28965564  0.19560515  0.95045629
   0.27566540  0.70764412  0.46782580
   0.26127201  0.72318798  0.95166692
   0.80779864  0.20036443  0.46140296
   0.76396234  0.20536805  0.96317306
   0.77313428  0.69247760  0.44479577
   0.78260489  0.70667281  0.97637608
   0.26899334  0.47164020  0.18697750
   0.26980150  0.48486606  0.71229510
   0.25991508  0.95481178  0.20839449
   0.26254085  0.95055524  0.70103101
   0.75835513  0.44270610  0.22436399
   0.75407092  0.46159221  0.68825021
   0.77439483  0.96368185  0.21186435
   0.75397227  0.94919393  0.70088736
   0.53332223  0.19987042  0.22228080
   0.53315116  0.21133122  0.69417468
   0.53359888  0.71096789  0.20767102
   0.53172674  0.70160323  0.72321600
   1.03588239  0.22521637  0.19817989
   1.02309134  0.21793417  0.75038658
   1.02489329  0.69316468  0.21678994
   0.99929332  0.71068022  0.67904485
   0.16138896  0.08316645  0.07357956
   0.14538162  0.10261108  0.57337092
   0.13812860  0.58958906  0.06499268
   0.14584140  0.59445409  0.59731227
   0.63708134  0.08305340  0.08466285
   0.64485130  0.08542108  0.56686777
   0.65245135  0.57160710  0.08304031
   0.63279152  0.58217123  0.57253457
   0.40831015  0.34029040  0.07701933
   0.37971092  0.34480482  0.58472486
   0.38597493  0.83385199  0.08356867
   0.40273804  0.81975340  0.60892719
   0.88227259  0.32631479  0.09104443
   0.91709324  0.31469673  0.60334213
   0.90082415  0.83104397  0.09784578
   0.89075113  0.85036832  0.56479643
   0.36619198  0.09509184  0.32752752
   0.40536039  0.07895231  0.82945001
   0.37986401  0.58512609  0.32809997
   0.37899377  0.58895317  0.84028552
   0.91226078  0.08248245  0.33395996
   0.88184800  0.06744498  0.83650930
   0.91132362  0.56513891  0.33741811
   0.88376092  0.58453377  0.81678108
   0.15721903  0.34348108  0.32825551
   0.15419922  0.34615601  0.84779954
   0.15164794  0.81784346  0.32688523
   0.12325404  0.81696525  0.83100380
   0.67103705  0.30988058  0.35348747
   0.63155679  0.33201953  0.82585707
   0.63893760  0.84856326  0.33833750
   0.65965971  0.82524191  0.84822758
