Si CD                                   
           1
    11.127995    0.284547   -0.066732
     0.000000   11.001039    0.189772
    -0.000000    0.000000   10.915185
   Si
    64
Direct configuration=  7110
   0.40064564  0.38691568  0.48358142
   0.43087100  0.36530784  0.97566231
   0.41184044  0.87333601  0.46308333
   0.41314429  0.87481326  0.97974459
   0.93299663  0.37712315  0.47502622
   0.90888558  0.38225577  0.97071001
   0.89941238  0.87596699  0.46549507
   0.94487609  0.87024021  0.97307948
   0.17721839  0.11455976  0.46710593
   0.16281015  0.14050721  0.97584166
   0.15925399  0.63853445  0.47359592
   0.18202664  0.62989111  0.93265344
   0.65337544  0.14372773  0.48578293
   0.68130558  0.12998937  0.94482297
   0.69400476  0.63088451  0.44581117
   0.67361485  0.63747638  0.96672359
   0.18190856  0.40050594  0.22995877
   0.16928952  0.38875510  0.72762123
   0.17478477  0.87780818  0.20354380
   0.17237454  0.88959133  0.72764573
   0.68806115  0.37629815  0.20793668
   0.65437316  0.38816242  0.72181880
   0.67008242  0.90032724  0.22683178
   0.65706219  0.86056193  0.72153745
   0.40735942  0.13007843  0.21513962
   0.40944653  0.12227278  0.72620231
   0.43298331  0.63559644  0.19665231
   0.42677966  0.61931879  0.71019863
   0.92070560  0.14452338  0.23107703
   0.90731083  0.14671241  0.73606385
   0.92592342  0.62672684  0.19263746
   0.91983807  0.64222417  0.70044721
   0.03775181  0.02603487  0.09689354
   0.03247068  0.01052724  0.59282260
   0.06278706  0.50257818  0.07654359
   0.03496765  0.52086832  0.58338852
   0.54068070  0.02293205  0.09089996
   0.52563191  0.01431694  0.58611572
   0.55788395  0.49711610  0.07370624
   0.55770803  0.51893302  0.57223802
   0.28444775  0.25256024  0.09628282
   0.28308708  0.24813504  0.59571804
   0.29095713  0.74055347  0.10407974
   0.28374616  0.75530524  0.59382887
   0.78134349  0.23369297  0.09286682
   0.77600348  0.27808699  0.59180229
   0.80285684  0.76978996  0.08772417
   0.77930273  0.75498556  0.60100493
   0.29842008 -0.00428684  0.33238904
   0.30767452 -0.00460847  0.85751752
   0.30433225  0.54489311  0.33154776
   0.29712920  0.48811105  0.84087667
   0.78023272  0.03713874  0.34252677
   0.80896725 -0.00200042  0.84480800
   0.81030858  0.50658832  0.31358811
   0.80511880  0.53014085  0.83566597
   0.05916461  0.27792625  0.34164870
   0.04521883  0.26432532  0.85334910
   0.03616895  0.75478005  0.34312064
   0.04479374  0.76419890  0.82392714
   0.53442001  0.26402265  0.35149556
   0.53385055  0.25685422  0.83830430
   0.55003447  0.76431989  0.34797275
   0.52833422  0.74845184  0.84765733
