Si CD                                   
           1
    10.852786    0.156237   -0.066887
     0.000000   11.024592    0.025328
    -0.000000    0.000000   10.954533
   Si
    64
Direct configuration=  2310
   0.39645568  0.48285145  0.44790286
   0.40376382  0.48339078  0.94975680
   0.40527732  0.98153633  0.44290706
   0.39799582  0.97158404  0.95360918
   0.90458597  0.48468194  0.43369342
   0.90282033  0.48447999  0.94579575
   0.90047154  0.99195545  0.44187543
   0.89992152  0.97168740  0.94043487
   0.16463333  0.24185699  0.45059030
   0.14611684  0.21552576  0.95507075
   0.15795605  0.74116678  0.45390316
   0.15540202  0.72072259  0.92349377
   0.65631626  0.24118814  0.47251049
   0.65159640  0.22743611  0.95190273
   0.66660031  0.72310135  0.42922306
   0.64777283  0.72554020  0.95889971
   0.17019793  0.47938599  0.18596454
   0.16076306  0.47580848  0.69548918
   0.14628241  0.97099476  0.19931426
   0.16818855  0.96856685  0.68669571
   0.66526662  0.45928506  0.20275815
   0.65611157  0.47494767  0.71332490
   0.65997223  0.98482450  0.19510225
   0.66413141  0.97751305  0.70296882
   0.40516409  0.23093461  0.20122577
   0.40719311  0.21151021  0.70645666
   0.40670614  0.73057498  0.18661501
   0.43012733  0.72449206  0.69444186
   0.91482033  0.22439312  0.19810954
   0.90085331  0.23285270  0.69052672
   0.91248313  0.73015511  0.18801789
   0.90765418  0.72728155  0.68599056
   0.02307158  0.09086049  0.07699578
   0.03568503  0.11425655  0.57240660
   0.03582977  0.61120099  0.06838797
   0.03810388  0.60621245  0.57307492
   0.52670442  0.10065703  0.07092249
   0.53642019  0.09861741  0.57086728
   0.53695710  0.59361117  0.08404595
   0.55068468  0.59563498  0.56488295
   0.27311568  0.34819484  0.07140277
   0.29348105  0.35080834  0.57522659
   0.26571956  0.84073641  0.06878669
   0.30096288  0.84897144  0.57590615
   0.78494340  0.33979736  0.07772948
   0.78719737  0.37021812  0.58632286
   0.77820340  0.84898962  0.07215461
   0.77334174  0.85336349  0.56065189
   0.27276472  0.11491209  0.32038729
   0.27403376  0.10204014  0.82738451
   0.27893791  0.60932014  0.32639635
   0.29579198  0.59873068  0.81169550
   0.77159111  0.12197614  0.33000779
   0.77946468  0.09821389  0.82504834
   0.78255942  0.59877728  0.30676854
   0.77651153  0.61617863  0.82709165
   0.04380113  0.35562560  0.32176301
   0.02365929  0.35599036  0.82371297
   0.02252956  0.86347968  0.32531076
   0.02813388  0.84911098  0.80719654
   0.53260251  0.35104446  0.33538533
   0.52114831  0.34871876  0.82922104
   0.53208601  0.85862728  0.31023730
   0.53950167  0.86170142  0.83354219
