Si CD                                   
           1
    10.882667    0.138728    0.209107
     0.000000   10.887401    0.122386
    -0.000000    0.000000   10.902938
   Si
    64
Direct configuration=  6710
   0.45569186  0.45588629  0.45927201
   0.45161173  0.46962678  0.99381100
   0.43943330  0.96484371  0.46294399
   0.44570521  0.94147174  0.98757989
   0.95174590  0.46524706  0.48579959
   0.94144368  0.47274697  0.94775043
   0.96764494  0.97631734  0.44475400
   0.95631714  0.96569307  0.97771251
   0.20327634  0.21509199  0.45838184
   0.21462036  0.20651587  0.96720619
   0.19725436  0.71715325  0.44696524
   0.20304665  0.71936067  0.96321682
   0.69578445  0.20746569  0.47189259
   0.66896132  0.22362126  0.96083724
   0.70265569  0.71701725  0.44864148
   0.70765408  0.69898854  0.94364847
   0.22966007  0.45907987  0.21524456
   0.20761082  0.45443229  0.71737753
   0.19021816  0.96788385  0.22680549
   0.20630229  0.95556671  0.71474934
   0.70431368  0.46982361  0.24134147
   0.69923289  0.45911347  0.71431425
   0.71961166  0.98046008  0.21524548
   0.73004681  0.97645114  0.69888852
   0.44911859  0.21485964  0.21890849
   0.43585711  0.21626720  0.73010322
   0.46272007  0.69263419  0.20685646
   0.46136639  0.72088273  0.73307119
   0.94906481  0.24585806  0.21106237
   0.96656014  0.20293173  0.71760836
   0.96219752  0.68164817  0.19562043
   0.96992167  0.72320875  0.70640640
   0.07136369  0.10654532  0.10236277
   0.08536049  0.07392413  0.58898016
   0.09668465  0.55734023  0.08098250
   0.08267755  0.58394862  0.58904084
   0.57143794  0.08850855  0.11104370
   0.57289339  0.08085933  0.60224358
   0.59713956  0.57849114  0.09200822
   0.56915357  0.57979736  0.57926076
   0.33096657  0.32622557  0.08960453
   0.33855212  0.33495181  0.58724268
   0.32143784  0.81613236  0.10875243
   0.31959751  0.81006146  0.57702188
   0.81729141  0.34496797  0.07950997
   0.82597495  0.32747204  0.59593349
   0.81828967  0.82162564  0.09249380
   0.83826361  0.84655467  0.57728719
   0.32819381  0.08310802  0.34413191
   0.33802931  0.05644287  0.84830609
   0.34799293  0.58587986  0.34331509
   0.32777124  0.56904487  0.84660255
   0.84650590  0.09116591  0.32914082
   0.82400126  0.09396187  0.84967853
   0.84775059  0.59598206  0.34410261
   0.83363604  0.57744581  0.81747562
   0.07482824  0.34476663  0.35777622
   0.08363692  0.33964744  0.84349173
   0.07800611  0.82706494  0.32758617
   0.08461163  0.83171577  0.83202424
   0.57667636  0.33218102  0.33506931
   0.56005615  0.35003116  0.84619304
   0.57519117  0.85106725  0.33378193
   0.58777543  0.84947654  0.83000236
