Si CD                                   
           1
    10.974074    0.082778    0.070514
     0.000000   10.965126   -0.045785
    -0.000000    0.000000   10.901131
   Si
    64
Direct configuration=  1510
   0.40814214  0.46328974  0.46421136
   0.41738627  0.46354123  0.97169427
   0.42716565  0.96776216  0.47081975
   0.41493982  0.96860093  0.98362042
   0.91334706  0.45841759  0.46088663
   0.92859160  0.47066101  0.96326757
   0.91492776  0.97034286  0.47336681
   0.93127549  0.96275718  0.96566359
   0.16402712  0.20765969  0.45736136
   0.17961640  0.21842615  0.96392610
   0.16653407  0.71886644  0.45599553
   0.17331433  0.71101251  0.96406989
   0.66726182  0.21779980  0.47220919
   0.67747701  0.21404521  0.97832141
   0.66001071  0.71816781  0.47353583
   0.67497243  0.71765196  0.96896266
   0.17111225  0.47178446  0.21201463
   0.17486223  0.45980354  0.71430179
   0.18039796  0.95290619  0.22844560
   0.16687802  0.95967410  0.71335934
   0.68302532  0.46788410  0.20863298
   0.66978399  0.46947102  0.72187323
   0.66862493  0.97079406  0.22443464
   0.67876002  0.96466452  0.71406992
   0.41720094  0.22079900  0.21829476
   0.41865811  0.21007763  0.71864249
   0.42471711  0.71960559  0.21443685
   0.41432152  0.73143005  0.72089362
   0.91687835  0.20214509  0.21139291
   0.91737315  0.21855358  0.72636105
   0.91058630  0.72522472  0.21778621
   0.92789542  0.71264777  0.71657866
   0.06197458  0.08396973  0.09508254
   0.04165794  0.08914310  0.59706206
   0.04411556  0.59169790  0.08784595
   0.04731686  0.58609296  0.58513652
   0.54058516  0.09617962  0.10303876
   0.54763727  0.09458157  0.60341487
   0.54890789  0.59720539  0.09181626
   0.53544781  0.59134794  0.60237119
   0.29171704  0.34657017  0.09738574
   0.29114125  0.32337345  0.57627053
   0.29171264  0.82588855  0.09696939
   0.29145871  0.83194563  0.59389449
   0.80554045  0.33499921  0.09368867
   0.80186521  0.34537393  0.59880782
   0.78895667  0.85076702  0.08944314
   0.79809594  0.84184323  0.59684682
   0.30223689  0.09156889  0.34309806
   0.28778861  0.08305695  0.84343426
   0.29173171  0.59216383  0.33547310
   0.30248698  0.58228681  0.83686907
   0.78461855  0.08964915  0.34813209
   0.80378223  0.08757394  0.84335181
   0.79149215  0.59677973  0.34103332
   0.79764485  0.58552076  0.84582098
   0.03516064  0.33624617  0.33274831
   0.04552428  0.33317617  0.84474989
   0.03917495  0.85182017  0.34007860
   0.05009723  0.83060972  0.83923025
   0.54391047  0.34895157  0.34224056
   0.54951065  0.33467083  0.85092098
   0.54409551  0.84146714  0.34167647
   0.54566356  0.85296538  0.84775093
