Si CD                                   
           1
    11.226716   -0.297081   -0.038102
     0.000000   11.006653    0.178462
    -0.000000    0.000000   10.893526
   Si
    64
Direct configuration=  6310
   0.46508288  0.49432057  0.47209880
   0.45357702  0.49547595  0.96217143
   0.45938078  0.98840124  0.45814408
   0.47064332  1.01871756  0.97890855
   0.96967320  0.48840651  0.47061018
   0.96471535  0.49224874  0.96834963
   0.97729046  0.98418890  0.46745421
   0.97017973  0.99300489  0.96807709
   0.20110436  0.22818109  0.46335259
   0.20954828  0.26445279  0.96611568
   0.22057734  0.75004648  0.46352792
   0.21710241  0.75433005  0.96429477
   0.71096434  0.23434168  0.48128882
   0.70619979  0.26332106  0.95473804
   0.69951032  0.72947521  0.46974425
   0.70880117  0.74639942  0.97451591
   0.20861514  0.48778297  0.19803580
   0.20644324  0.49673967  0.70735328
   0.23291720  0.99604544  0.21956687
   0.23509712  1.01632847  0.70850193
   0.71498015  0.49751736  0.21233910
   0.71947615  0.46260735  0.69135975
   0.70933946  0.97800014  0.20405875
   0.72210159  1.00305673  0.73454822
   0.48221636  0.24658134  0.21365278
   0.46445514  0.25781405  0.72518965
   0.46113436  0.74848965  0.20513989
   0.46835641  0.74690180  0.71641328
   0.95994571  0.22497074  0.19454719
   0.97425429  0.23701121  0.71130809
   0.97961511  0.74743346  0.22394767
   0.96934250  0.73757386  0.74721889
   0.10457116  0.11231572  0.08822393
   0.08419428  0.11948572  0.60709443
   0.08517161  0.62325889  0.08579892
   0.07619040  0.62473651  0.59866011
   0.59939246  0.14357826  0.10528037
   0.60058103  0.11646588  0.61020615
   0.59289930  0.62243815  0.09806556
   0.59401632  0.61467351  0.59411638
   0.35441480  0.36926388  0.09087781
   0.31810055  0.36855581  0.58223705
   0.33426742  0.87261924  0.07910852
   0.35295402  0.86104365  0.60134323
   0.83890412  0.37176772  0.08988703
   0.85582981  0.35250174  0.60088586
   0.84968490  0.86625551  0.08145797
   0.83577384  0.85549953  0.60133347
   0.35285546  0.11546339  0.32776300
   0.35319790  0.13573416  0.84699092
   0.33890509  0.63662544  0.34850850
   0.33861004  0.62844109  0.84384640
   0.83757596  0.10518131  0.33380243
   0.84428810  0.11130211  0.85920801
   0.83288433  0.61761548  0.34019109
   0.82541806  0.59955116  0.86001041
   0.06439148  0.35874007  0.34203219
   0.07979918  0.36339164  0.83834514
   0.09657011  0.87202024  0.33995561
   0.11924320  0.89530202  0.83401956
   0.57834746  0.38725720  0.34666243
   0.57709630  0.38817703  0.82773558
   0.59885721  0.85892898  0.33538532
   0.59083577  0.88266830  0.85008400
