Si CD                                   
           1
    10.940550    0.020887   -0.014784
     0.000000   10.893720   -0.035626
    -0.000000   -0.000000   10.936834
   Si
    64
Direct configuration=   710
   0.42671273  0.45726087  0.46736877
   0.41917154  0.45785960  0.96048813
   0.42489117  0.96666871  0.46184206
   0.43058072  0.96232090  0.96436069
   0.91613644  0.46883253  0.45991199
   0.92541242  0.46101059  0.95854455
   0.92597971  0.96339762  0.46090811
   0.92651782  0.96151367  0.97098561
   0.17143192  0.21884016  0.46157509
   0.17963335  0.20119499  0.95643617
   0.17244905  0.71223543  0.45405736
   0.17350195  0.71338063  0.96565012
   0.67851792  0.20609816  0.45363733
   0.67462250  0.20913656  0.96277474
   0.67337886  0.70573166  0.45200360
   0.67814184  0.70752257  0.96215821
   0.18132617  0.44867502  0.21391004
   0.17554732  0.46911062  0.70888904
   0.17793063  0.96401999  0.20994395
   0.17991081  0.95949388  0.70652846
   0.67836287  0.46650197  0.21435631
   0.67802219  0.45795928  0.70455776
   0.67163118  0.95879759  0.21017132
   0.68436724  0.95417180  0.71580961
   0.42725255  0.21606048  0.21490527
   0.41785293  0.20863133  0.71019837
   0.42768908  0.72036139  0.21324921
   0.41909935  0.70881191  0.71338285
   0.92328954  0.21047612  0.20908731
   0.93299496  0.21544346  0.71555902
   0.93189269  0.71192706  0.20949680
   0.92206563  0.71192893  0.70999893
   0.05293279  0.08313847  0.08896000
   0.05726112  0.08740891  0.58608820
   0.05420578  0.57906973  0.09306123
   0.04920471  0.59260987  0.58381166
   0.55002313  0.08409129  0.09303392
   0.55285649  0.08312872  0.58942307
   0.54923141  0.58282085  0.09222668
   0.54687287  0.58601512  0.58867415
   0.29876990  0.32778932  0.08568321
   0.29567270  0.33392717  0.59173529
   0.30846204  0.83785927  0.08129203
   0.30353772  0.83631350  0.58046427
   0.79783067  0.33327164  0.08067932
   0.80449898  0.33362283  0.58395917
   0.79866570  0.82816545  0.08732115
   0.80517710  0.82923452  0.58176696
   0.30417372  0.08771649  0.34052585
   0.30514723  0.07020468  0.83051422
   0.30940976  0.58012755  0.33745130
   0.29813945  0.58704259  0.83900879
   0.80406383  0.08115377  0.33106175
   0.80758283  0.09220025  0.83983016
   0.80251287  0.59241659  0.33023977
   0.79638489  0.58296781  0.83624428
   0.04913030  0.33790233  0.33839362
   0.05769346  0.34478143  0.83949901
   0.05319710  0.84261863  0.33235681
   0.04645709  0.83732207  0.83974504
   0.55362253  0.34067373  0.34358028
   0.55264134  0.33613824  0.83682059
   0.55716823  0.84108629  0.33341435
   0.55391365  0.83674060  0.84342208
