Si CD                                   
           1
    10.981366   -0.005974    0.043919
     0.000000   10.970354    0.045623
    -0.000000    0.000000   10.919533
   Si
    64
Direct configuration=   310
   0.44065369  0.46222579  0.44449005
   0.45275550  0.45321491  0.94874800
   0.44959674  0.95737903  0.44750929
   0.44260784  0.95071296  0.93909407
   0.95422455  0.44918173  0.44976792
   0.94576277  0.46440828  0.94795825
   0.94552759  0.95806868  0.44479369
   0.94169256  0.95875123  0.94565466
   0.20758074  0.20163226  0.44001994
   0.20286450  0.20745132  0.94079757
   0.19461723  0.69911114  0.44996701
   0.19340534  0.70350528  0.94581783
   0.70482960  0.20334373  0.45447395
   0.69519803  0.20489686  0.95107083
   0.69806426  0.70320224  0.44513278
   0.69852036  0.70464545  0.94377097
   0.19440089  0.44818676  0.19780605
   0.20058662  0.45245663  0.70108588
   0.19815126  0.95540424  0.19404207
   0.19360461  0.94633727  0.69973042
   0.69458962  0.45620014  0.20456629
   0.69694342  0.45414845  0.68823054
   0.68488822  0.95364350  0.19674331
   0.68963807  0.95343649  0.69216167
   0.45689848  0.20704433  0.19959409
   0.45113915  0.20435212  0.69767807
   0.44286143  0.70418435  0.18917904
   0.44546913  0.70026392  0.69861470
   0.94464632  0.20197042  0.19685583
   0.94995614  0.20057561  0.69630343
   0.95123160  0.70811856  0.20199040
   0.94709855  0.69931556  0.69463015
   0.07282714  0.07773120  0.06764240
   0.08138611  0.07666979  0.57289213
   0.07116867  0.58270769  0.07052524
   0.07892700  0.57501357  0.57650219
   0.56586354  0.08193746  0.06674101
   0.57148336  0.08320810  0.56545979
   0.57493938  0.57475747  0.07241115
   0.56793094  0.57598409  0.56812529
   0.32369223  0.32505337  0.07361947
   0.32134493  0.33205822  0.56965050
   0.32008321  0.83022468  0.06490975
   0.32498041  0.82187178  0.57492552
   0.81783235  0.32764565  0.07596258
   0.82829803  0.33221635  0.57362440
   0.81491062  0.83657299  0.07214950
   0.82001805  0.83522470  0.57491307
   0.32913651  0.07152459  0.31586598
   0.31948324  0.07672008  0.81728228
   0.31520255  0.57534418  0.31219798
   0.31999009  0.57446043  0.83453033
   0.81661132  0.07819091  0.31775997
   0.81772329  0.08111049  0.82492384
   0.82642042  0.57902594  0.32750299
   0.82076824  0.58358262  0.82165506
   0.07001067  0.31858907  0.32288000
   0.06831906  0.33734705  0.82618312
   0.06861578  0.83181419  0.32113042
   0.06243057  0.82626864  0.82478838
   0.57443794  0.33182265  0.33069958
   0.56922789  0.32932867  0.81699573
   0.57420988  0.82677943  0.32114467
   0.57169172  0.82259944  0.81800694
