Si CD                                   
           1
    11.136791    0.071350    0.191722
     0.000000   10.785784   -0.030023
     0.000000    0.000000   11.204960
   Si
    64
Direct configuration=  9110
   0.42899053  0.49215654  0.47142262
   0.45550530  0.53184133  0.98979004
   0.44527615  1.01047598  0.49482984
   0.43540039  0.99189907  1.01599075
   0.95653674  0.50857431  0.48603501
   0.93217132  0.49184045  1.00041301
   0.95255676  1.00178181  0.47378713
   0.91101542  0.99826414  0.98125996
   0.17396917  0.27190236  0.46433068
   0.19051243  0.25797917  0.98308319
   0.18070072  0.77420981  0.51058717
   0.17339448  0.76376545  0.99386072
   0.69768344  0.27035068  0.48857406
   0.67733829  0.24905294  0.98889718
   0.66567073  0.74588744  0.50918811
   0.68047706  0.76054133  0.97266353
   0.18880712  0.51488692  0.22095875
   0.18469614  0.47505396  0.73858086
   0.18000909  1.02451317  0.20496635
   0.18021285  1.04536483  0.74082493
   0.65108957  0.49753445  0.22892831
   0.70910792  0.48642657  0.71905627
   0.70394366  1.00521613  0.26344003
   0.68220275  0.99150162  0.72994734
   0.44611888  0.27021807  0.23119277
   0.43157425  0.26300022  0.73774069
   0.43365205  0.78095900  0.26806907
   0.42978951  0.75658309  0.75718819
   0.92789455  0.25144058  0.24275996
   0.92343868  0.24001196  0.71950848
   0.92237351  0.75323721  0.25295057
   0.93147565  0.73797812  0.74560511
   0.03876048  0.14505211  0.09382786
   0.06237098  0.13556929  0.59512927
   0.03761281  0.64422129  0.11479991
   0.07154616  0.62459147  0.63217545
   0.57054849  0.11839718  0.12569011
   0.57446562  0.14286282  0.58625263
   0.55187675  0.65995367  0.13026049
   0.53040943  0.62066151  0.62403743
   0.34195469  0.39212753  0.10861403
   0.30507382  0.36547974  0.59245264
   0.30722049  0.87454684  0.11152806
   0.32252182  0.89233453  0.63178395
   0.81273248  0.36474806  0.11442550
   0.82974733  0.38653472  0.60527079
   0.79907531  0.87322595  0.11432611
   0.81185035  0.85203865  0.61620115
   0.29038731  0.14040627  0.35043868
   0.30707143  0.12240622  0.87485842
   0.29578077  0.63049801  0.36359505
   0.30261777  0.63535990  0.87283290
   0.83895480  0.13122960  0.38618930
   0.81265030  0.13540754  0.84808000
   0.79037478  0.61541129  0.37098323
   0.80877547  0.61522064  0.85276624
   0.06041805  0.38640837  0.34271997
   0.04435759  0.35464651  0.86347696
   0.08108540  0.86090662  0.33118859
   0.04906425  0.88318591  0.85663427
   0.56313916  0.37866808  0.36645132
   0.56572978  0.39037749  0.85387911
   0.57003648  0.88410284  0.37422827
   0.54379360  0.89229069  0.86736264
