Si CD                                   
           1
    10.669351   -0.114036   -0.171210
     0.000000   11.155787    0.087139
    -0.000000    0.000000   11.005800
   Si
    64
Direct configuration=  7910
   0.38126124  0.35163220  0.42501937
   0.38248934  0.37478047  0.93194394
   0.38373430  0.85783218  0.42209994
   0.41600475  0.86057979  0.92331090
   0.90533004  0.35769834  0.41780039
   0.89953070  0.32926452  0.89822462
   0.86553792  0.86490930  0.40319122
   0.89056571  0.88825477  0.91196858
   0.12890359  0.10218311  0.42102819
   0.17289656  0.11535465  0.94225447
   0.12021570  0.64146765  0.43021309
   0.12961872  0.60531354  0.92002317
   0.64425004  0.09791176  0.43411495
   0.65007888  0.12837077  0.91341082
   0.61748089  0.60114817  0.40558649
   0.64325374  0.61810415  0.93285481
   0.15840373  0.37318483  0.16302878
   0.15636443  0.35322713  0.66668762
   0.14191321  0.86686537  0.17861355
   0.13166439  0.86248133  0.66394079
   0.66552407  0.35688191  0.18890136
   0.64133288  0.34465915  0.64540714
   0.65462973  0.86642669  0.15674485
   0.65384363  0.84205530  0.66133023
   0.42335951  0.14333565  0.17035294
   0.40504081  0.07680331  0.71065822
   0.38567818  0.61489743  0.14647340
   0.37688737  0.61772487  0.65420303
   0.90633328  0.11125908  0.15768499
   0.91704028  0.09942573  0.67683627
   0.90778323  0.59841703  0.14569554
   0.88192134  0.61395883  0.66385336
   0.02376004 -0.03150364  0.04669652
   0.00317731 -0.03518957  0.53573020
  -0.00303388  0.46991754  0.00807879
   0.02861908  0.50817097  0.53948969
   0.52898106 -0.00447121  0.04574976
   0.52884605 -0.03857282  0.54710216
   0.54634583  0.48064056  0.06469839
   0.49751690  0.48534917  0.54452689
   0.29379466  0.24940512  0.07038682
   0.26059299  0.20468181  0.55166599
   0.25221014  0.73980294  0.04626600
   0.25561992  0.74585537  0.55403242
   0.77730696  0.24776075  0.04893063
   0.79007256  0.22381899  0.53986655
   0.78155053  0.73453177  0.03860461
   0.75619335  0.74021453  0.52929416
   0.29289702  0.00923371  0.28708648
   0.26621876 -0.03123235  0.81210106
   0.26430519  0.51358715  0.29205769
   0.26051149  0.50090583  0.79771031
   0.76804287  0.00875054  0.28445160
   0.76078011  0.01766412  0.78429268
   0.78645914  0.49496009  0.29696644
   0.74827729  0.47809359  0.78380452
   0.03393029  0.22525896  0.27957741
   0.04653269  0.21489414  0.80346445
  -0.00067029  0.74918521  0.27822775
  -0.00111229  0.75144266  0.79223647
   0.53289125  0.24829891  0.31894290
   0.51753223  0.24219071  0.80143962
   0.50682387  0.73483062  0.28642386
   0.53085986  0.73566504  0.78241813
