Si CD                                   
           1
    10.822937    0.002312   -0.024189
     0.000000   11.038255   -0.032529
    -0.000000    0.000000   10.915086
   Si
    64
Direct configuration=  3910
   0.47265616  0.42710510  0.49822178
   0.49187329  0.44249631  0.98432224
   0.48055302  0.94351648  0.48425142
   0.48662561  0.95130611  0.98270189
   0.99018405  0.43659701  0.48696632
   0.97630728  0.43045898  0.98329805
   0.98111568  0.92912848  0.47902020
   0.98558228  0.94094607  0.98682092
   0.23178028  0.18385986  0.47598086
   0.24326633  0.19175276  0.98831842
   0.23827780  0.68025054  0.49787852
   0.21520636  0.68874237  0.98627836
   0.74180558  0.18609298  0.49531576
   0.71893490  0.18395571  0.97792330
   0.73565892  0.68631649  0.46958149
   0.73185171  0.68363817  0.98725330
   0.25220606  0.44656815  0.23209196
   0.22855681  0.43997674  0.74001667
   0.23024654  0.95466851  0.24823598
   0.23899229  0.96344225  0.74108291
   0.72210158  0.43849974  0.24106358
   0.72185010  0.44443746  0.71541893
   0.74626441  0.93899027  0.23759566
   0.71271090  0.93795129  0.72492292
   0.48548578  0.19388506  0.24480147
   0.47339523  0.20243047  0.72892394
   0.48905680  0.69667237  0.22386402
   0.47872338  0.68414859  0.73874458
   0.97735954  0.19538562  0.23529203
   0.97529723  0.16931861  0.71533978
   0.99109923  0.68465214  0.23707113
   0.98433746  0.70685932  0.73119872
   0.11114799  0.07762692  0.10924972
   0.10209645  0.04877280  0.59735202
   0.10741976  0.55153279  0.10695342
   0.09185732  0.56585998  0.61335861
   0.61098213  0.06437953  0.11715938
   0.60006899  0.06908966  0.60252955
   0.61375760  0.56394881  0.11759773
   0.60036988  0.57589617  0.59441040
   0.36538020  0.31468059  0.10902592
   0.34227983  0.30996895  0.61121517
   0.35880688  0.81435358  0.10423919
   0.35366877  0.82144928  0.61828352
   0.84417571  0.30855556  0.10973388
   0.86475695  0.30946708  0.60489404
   0.85515107  0.80749510  0.11784240
   0.85777751  0.80612655  0.59866573
   0.36107428  0.05739606  0.36463957
   0.36493736  0.07357882  0.86604815
   0.37387882  0.56677525  0.36632410
   0.36266713  0.55554417  0.86649155
   0.84906518  0.06269340  0.36017978
   0.84883914  0.05399867  0.84642740
   0.86317370  0.55805854  0.34975064
   0.85013272  0.57237617  0.85089808
   0.10967012  0.32596288  0.35928031
   0.10238910  0.29994228  0.84847518
   0.11795243  0.80177505  0.36213237
   0.12276002  0.83314267  0.84524589
   0.61367192  0.31652492  0.36728282
   0.61930414  0.32601925  0.84938381
   0.61773588  0.81092061  0.34904557
   0.59844112  0.81415607  0.88275706
