Si CD                                   
           1
    11.148154   -0.076685   -0.113163
     0.000000   10.848233   -0.036501
    -0.000000    0.000000   10.993945
   Si
    64
Direct configuration=  9510
   0.44909713  0.54324853  0.44467123
   0.42423394  0.56081616  0.94273775
   0.47683118  1.06212134  0.45491960
   0.45346942  1.04228562  0.96685584
   0.95197556  0.58745825  0.48125503
   0.94670605  0.55302217  0.95073502
   0.96439322  1.03090300  0.47449787
   0.95178133  1.04393415  0.94922792
   0.18630630  0.28759793  0.46700617
   0.22508205  0.28584008  0.96966622
   0.18481577  0.79233641  0.45630927
   0.20125984  0.81174423  0.93190978
   0.69183922  0.30574881  0.47016643
   0.68012038  0.30311148  0.94478573
   0.68889938  0.78016626  0.48256543
   0.67044443  0.79236910  0.96136969
   0.18688511  0.53402696  0.20630493
   0.19543534  0.52069170  0.69319604
   0.19954570  1.05711638  0.20445460
   0.21871374  1.02969057  0.70022877
   0.68643339  0.56771479  0.22203581
   0.71234868  0.54713431  0.72608307
   0.73051130  1.01922826  0.26799560
   0.71130658  1.04582768  0.71631207
   0.46909522  0.27438166  0.20728238
   0.43162910  0.30801416  0.70329996
   0.43118523  0.79776318  0.22224900
   0.45201117  0.78945820  0.68991735
   0.94030335  0.31724906  0.21601351
   0.93724013  0.29674269  0.70901604
   0.95908441  0.79070498  0.19754064
   0.93150575  0.79642149  0.71741466
   0.06426982  0.18594026  0.07453788
   0.06974993  0.17138388  0.59548986
   0.08089053  0.65321385  0.08226932
   0.07825287  0.68916687  0.60807638
   0.61341554  0.15561199  0.09384865
   0.56846841  0.17864477  0.59602643
   0.54325862  0.68629228  0.09461469
   0.55637990  0.63956114  0.60164466
   0.33752144  0.41687310  0.08964455
   0.31324951  0.40583840  0.56122652
   0.30952628  0.92775094  0.07065169
   0.36046315  0.91436223  0.54834131
   0.79682734  0.43065819  0.09688760
   0.82855458  0.42777951  0.57199736
   0.80796453  0.92336514  0.07932632
   0.83777703  0.90540413  0.58492999
   0.31975438  0.16995801  0.33504891
   0.31727314  0.14773525  0.83667273
   0.31134828  0.66544334  0.32767976
   0.30914801  0.67726065  0.80441529
   0.84834592  0.18792427  0.35860982
   0.83406372  0.17981985  0.85687425
   0.83370418  0.67141528  0.32331362
   0.83338872  0.68614373  0.86392960
   0.07477705  0.43807368  0.34317057
   0.07719253  0.41491981  0.83203505
   0.07817138  0.93174472  0.33117288
   0.07475764  0.92060446  0.82259679
   0.59883630  0.41615045  0.33921547
   0.57370272  0.43513364  0.82508457
   0.57674876  0.90757127  0.33134451
   0.58862288  0.92003271  0.81995673
