Si CD                                   
           1
    10.940263    0.009443   -0.004165
     0.000000   10.959969    0.012576
     0.000000    0.000000   10.930330
   Si
    64
Direct configuration=   110
   0.44680347  0.45114909  0.43574500
   0.43844548  0.44932396  0.93031836
   0.44057242  0.94400203  0.44054025
   0.44848411  0.94357453  0.94405029
   0.94696860  0.44519088  0.44087559
   0.94101092  0.45371342  0.93656173
   0.94390597  0.95076048  0.43726047
   0.94022420  0.94237194  0.94641520
   0.19993307  0.19709011  0.44272556
   0.18980064  0.19601268  0.93255000
   0.19541361  0.69055236  0.43640384
   0.19462114  0.69846010  0.94371172
   0.69030551  0.20003273  0.43141819
   0.69252721  0.19837575  0.93794844
   0.69169358  0.70362986  0.43406053
   0.69348248  0.70372510  0.93441451
   0.19242941  0.44792941  0.18596870
   0.19287845  0.44842067  0.68864280
   0.19021604  0.94460800  0.19578285
   0.20208957  0.95378936  0.69153674
   0.68726732  0.44165948  0.18325408
   0.69731448  0.44989867  0.68823659
   0.69604790  0.95334884  0.18682505
   0.69026578  0.94975567  0.68849960
   0.43497019  0.19978491  0.18584709
   0.45056102  0.19971332  0.68944943
   0.44499280  0.69732123  0.18884798
   0.43886378  0.69743832  0.68765446
   0.94904489  0.19709495  0.19231879
   0.94075647  0.19919270  0.68180538
   0.93350352  0.69435714  0.19224584
   0.94918094  0.70387245  0.69315884
   0.06774877  0.07060306  0.06464348
   0.07349499  0.07434912  0.57112862
   0.06637305  0.57772334  0.06213969
   0.06325070  0.57547123  0.56672327
   0.56363591  0.07334144  0.06598175
   0.56801260  0.07501266  0.56164328
   0.57081062  0.57159498  0.05780940
   0.56745796  0.58150576  0.56440230
   0.31244576  0.32490056  0.05897819
   0.32168193  0.32176094  0.56497186
   0.31505037  0.82365305  0.06985479
   0.31497436  0.81845112  0.56316730
   0.81791888  0.32150680  0.06532621
   0.81274961  0.31996424  0.56294703
   0.81202563  0.82607015  0.06685306
   0.81820709  0.82692332  0.56327128
   0.31657837  0.07090128  0.31147636
   0.32802268  0.07570876  0.81644999
   0.32036452  0.56651214  0.31161544
   0.31547415  0.57272919  0.80700202
   0.82124017  0.07199602  0.31149748
   0.81818337  0.07048939  0.80733338
   0.81776781  0.55691624  0.31521897
   0.82074283  0.57892120  0.81346483
   0.07785406  0.32554581  0.32413388
   0.06214211  0.32319286  0.81066955
   0.06772782  0.81288523  0.31301340
   0.07486628  0.82481882  0.81674911
   0.56250227  0.32141327  0.30617092
   0.57124131  0.32488774  0.81775814
   0.56956221  0.82751633  0.30417306
   0.56416844  0.81997046  0.81470506
