Si CD                                   
           1
    11.120676    0.197329    0.265973
     0.000000   10.891382   -0.209941
    -0.000000    0.000000   10.846857
   Si
    64
Direct configuration=  5310
   0.54129639  0.45252128  0.42751836
   0.53727979  0.45321328  0.93366981
   0.52078778  0.95835966  0.44115669
   0.52628304  0.96273989  0.94542620
   1.05508803  0.42968497  0.45389033
   1.04311743  0.44409911  0.94371598
   1.03300220  0.94885440  0.45611005
   1.02021496  0.92911496  0.93401075
   0.29533295  0.20115241  0.44735334
   0.27803774  0.19345605  0.94305243
   0.26319660  0.70561108  0.43502543
   0.29356829  0.71005179  0.96964853
   0.79528649  0.20338510  0.44052340
   0.79223197  0.18850787  0.94162212
   0.78924802  0.71338047  0.42682168
   0.76454788  0.72134460  0.92423437
   0.28531045  0.44011107  0.19616098
   0.29464473  0.46906101  0.68169348
   0.27090446  0.98765355  0.18402318
   0.29092376  0.94926278  0.69206039
   0.80674138  0.47375515  0.20109653
   0.78724359  0.45877108  0.66954834
   0.78347262  0.95596722  0.20203740
   0.79243650  0.97068210  0.67532890
   0.54358943  0.19853314  0.18100676
   0.51708065  0.21589912  0.68008598
   0.53882887  0.70269371  0.19795631
   0.52736267  0.68437420  0.68898674
   1.02229767  0.17740689  0.18347679
   1.04870132  0.21434951  0.70041554
   1.04893304  0.71842699  0.20528683
   1.03343776  0.69348171  0.70691233
   0.13886882  0.06342850  0.03880357
   0.16835646  0.06555858  0.57785938
   0.16597776  0.56823483  0.07240257
   0.15645261  0.58499452  0.57060299
   0.65811289  0.06782005  0.06444012
   0.64572511  0.08227017  0.56028358
   0.66689476  0.59078555  0.05726939
   0.66484330  0.58163064  0.56167886
   0.41321624  0.31215981  0.04966983
   0.42135037  0.33321088  0.54476721
   0.41766807  0.85206109  0.07541444
   0.40076142  0.81335295  0.56095006
   0.91742481  0.32884868  0.07270426
   0.92302061  0.32056563  0.56692833
   0.90982218  0.82191777  0.07071940
   0.90989670  0.81673823  0.57047992
   0.41897811  0.09488198  0.31139922
   0.40519810  0.08922652  0.80511982
   0.40959013  0.59203363  0.32672152
   0.40468532  0.57388374  0.82526098
   0.91517817  0.06542475  0.32662497
   0.92745105  0.07401954  0.80265172
   0.92442747  0.56990152  0.32816142
   0.88945538  0.56551779  0.82335593
   0.15881571  0.30131005  0.30601255
   0.18011194  0.34047550  0.81244578
   0.17167497  0.85987407  0.31884489
   0.16137599  0.82015657  0.81580839
   0.66934541  0.32279244  0.30507515
   0.67043246  0.31644261  0.79972532
   0.64772403  0.83048840  0.32737711
   0.64414456  0.83329911  0.80990344
