Si CD                                   
           1
    11.047205   -0.007679   -0.101465
     0.000000   10.938462    0.075578
     0.000000    0.000000   10.966080
   Si
    64
Direct configuration=  8910
   0.44385762  0.52799948  0.48165416
   0.47257230  0.52629100  0.99526563
   0.44473021  1.02945833  0.49387523
   0.45420671  1.00437384  0.96790992
   0.94899679  0.49352904  0.47980090
   0.95196930  0.50460980  0.98227625
   0.93559472  1.03419685  0.48160806
   0.98594166  1.01888025  0.98898275
   0.19182154  0.26796820  0.48806025
   0.19178770  0.27262039  0.99226681
   0.22023516  0.77870221  0.47899246
   0.23379847  0.76932127  0.96958222
   0.68781551  0.26004662  0.48694875
   0.70417485  0.26540052  0.97831239
   0.70603763  0.77795988  0.46386169
   0.71172455  0.75464225  0.99588360
   0.20627635  0.49536762  0.23531944
   0.19384634  0.52575742  0.72235045
   0.19778649  1.01178765  0.23329970
   0.20293166  1.02455917  0.73445971
   0.69814198  0.51837990  0.22899815
   0.68351698  0.52667645  0.73037415
   0.70058599  1.00332328  0.22905489
   0.69664493  1.01047110  0.72248658
   0.47936115  0.27129603  0.22702735
   0.44227200  0.26802913  0.74545195
   0.44976412  0.76727113  0.24656606
   0.46003543  0.76068646  0.72780653
   0.94443767  0.27942754  0.21232209
   0.93661167  0.25061393  0.74490649
   0.96470543  0.75159527  0.22361286
   0.95325040  0.75689229  0.71555499
   0.09273045  0.15892007  0.12987091
   0.06429867  0.14448394  0.61592373
   0.10635016  0.64028852  0.09422175
   0.05384450  0.62739538  0.59582573
   0.57984402  0.13033695  0.09948035
   0.57229059  0.11494615  0.61342463
   0.57100364  0.65627195  0.11723800
   0.58800159  0.64523507  0.58675044
   0.36197341  0.38090640  0.09472515
   0.31684017  0.41249921  0.61143118
   0.34366770  0.89084644  0.11297580
   0.33474166  0.88865429  0.62368198
   0.82258232  0.39520070  0.09476493
   0.81786761  0.40186350  0.60446792
   0.84355570  0.89478570  0.11652977
   0.82359646  0.88209345  0.59973262
   0.33356845  0.14714832  0.35415718
   0.32566054  0.13455634  0.87339573
   0.30772278  0.64082312  0.34227307
   0.35230050  0.61553105  0.84955337
   0.82109310  0.17539051  0.35108526
   0.82424258  0.12687383  0.85854937
   0.83747357  0.61721999  0.34862720
   0.82308042  0.65062167  0.83225953
   0.05500459  0.39694742  0.33389445
   0.07203663  0.36368470  0.84690065
   0.06390499  0.89761651  0.37344685
   0.10040441  0.90188822  0.83831760
   0.57543106  0.40892660  0.36148631
   0.55752483  0.38411301  0.87537111
   0.55935474  0.88681010  0.36644257
   0.58730411  0.86376198  0.86584104
