Si CD                                   
           1
    10.900987   -0.084758    0.028225
     0.000000   10.995928   -0.002648
    -0.000000    0.000000   10.900185
   Si
    64
Direct configuration=  4910
   0.51186262  0.44926149  0.45533700
   0.51491554  0.45572760  0.95537566
   0.50897236  0.97171554  0.46771267
   0.52025776  0.96085851  0.94407039
   1.01758714  0.45755347  0.47994122
   1.00591009  0.42306163  0.95650901
   1.01885622  0.92499087  0.47355317
   0.99710289  0.94863243  0.95244545
   0.26735453  0.20814533  0.44714955
   0.26023095  0.24533065  0.97254406
   0.27376284  0.72038576  0.45427250
   0.25101082  0.70124756  0.93901164
   0.77053110  0.22290023  0.43739236
   0.75696501  0.19225863  0.95622983
   0.76274718  0.69699483  0.45400014
   0.75611413  0.70870535  0.95015774
   0.25117797  0.47491029  0.20736830
   0.26131949  0.46512815  0.69228233
   0.24831581  0.95418630  0.19781155
   0.26496140  0.97036573  0.71701540
   0.76095544  0.44724822  0.21014216
   0.75563603  0.46479750  0.69992792
   0.74752710  0.94663766  0.21574294
   0.75116716  0.98536695  0.68712922
   0.50271555  0.20293197  0.20852064
   0.50753598  0.20487073  0.71567053
   0.51490075  0.69813542  0.21728114
   0.50472086  0.70374129  0.70675082
   1.00695197  0.17577047  0.22240388
   1.01044175  0.20679509  0.70028432
   1.00546267  0.69110727  0.20995840
   1.00326224  0.68857826  0.70742810
   0.12512721  0.08068657  0.08193604
   0.14107031  0.08850520  0.57618329
   0.12793530  0.59209225  0.07354526
   0.12635117  0.59686425  0.57731166
   0.63168757  0.06867971  0.08755019
   0.63269588  0.10716877  0.57050850
   0.64940442  0.58956190  0.09304465
   0.63785905  0.58738554  0.58145587
   0.39054524  0.34655982  0.09375222
   0.38654754  0.32420658  0.58563056
   0.39167333  0.83829305  0.08372981
   0.39904380  0.83430549  0.58786935
   0.89227956  0.31834817  0.08611867
   0.88275637  0.33217500  0.58579178
   0.87823711  0.82451204  0.09184998
   0.87458657  0.81979342  0.59777357
   0.37960731  0.06591675  0.33200033
   0.36888286  0.08830776  0.83945527
   0.38635732  0.58236236  0.33411054
   0.37238442  0.57637943  0.82316030
   0.87577827  0.05912678  0.35726562
   0.88474422  0.07741421  0.82891023
   0.88128385  0.56343439  0.33767684
   0.87368149  0.55827156  0.83442653
   0.13929895  0.33084093  0.32162885
   0.14530482  0.34357618  0.82809985
   0.12607594  0.82044020  0.33085802
   0.13503671  0.83174183  0.80443579
   0.63680493  0.33406095  0.33448612
   0.64336765  0.33925675  0.83122421
   0.62439213  0.82550834  0.35986064
   0.62571387  0.83287507  0.80472957
