Si CD                                   
           1
    11.118284    0.308195   -0.271378
     0.000000   10.834240    0.106114
    -0.000000    0.000000   10.923630
   Si
    64
Direct configuration=  9710
   0.47312653  0.54063213  0.44666605
   0.44129187  0.50221618  0.97234530
   0.47149550  1.07476923  0.48205076
   0.46265597  1.02924336  0.96407776
   0.95778856  0.54086810  0.46203658
   0.97180316  0.54041203  0.97585690
   0.94909892  1.06574525  0.47272990
   0.95887949  1.01081660  0.96939367
   0.22398084  0.30528365  0.47148586
   0.20662220  0.28047992  0.96862584
   0.21011157  0.83209886  0.47256976
   0.19892629  0.77528699  0.98338889
   0.71470684  0.29729362  0.45985819
   0.71191947  0.30376063  0.97594818
   0.70807537  0.79078974  0.46916186
   0.68163213  0.78680218  0.96260293
   0.23404296  0.51307135  0.24439604
   0.20979133  0.53499689  0.71354298
   0.20632793  1.04086705  0.22130738
   0.20281267  1.01718860  0.70607354
   0.71523133  0.55170257  0.20783532
   0.69635591  0.53369693  0.73279457
   0.71513494  1.03362242  0.22828670
   0.72572290  1.03237380  0.72255551
   0.48520402  0.27722511  0.20716218
   0.45193583  0.29528550  0.72016667
   0.46202366  0.78873566  0.20080895
   0.44385977  0.77468123  0.71437941
   0.95648010  0.27487357  0.19524519
   0.96700781  0.27178013  0.68945496
   0.99098935  0.77130693  0.23883518
   0.96570450  0.78510705  0.70807467
   0.06170647  0.14703669  0.07196548
   0.11013895  0.16728601  0.58183544
   0.10727057  0.65342846  0.09743746
   0.07593499  0.66137423  0.59002633
   0.61627959  0.17503320  0.08100263
   0.57972549  0.17443328  0.61159053
   0.57925680  0.65031562  0.07485412
   0.57387048  0.65450658  0.59812203
   0.32307968  0.36913887  0.11950430
   0.35271356  0.43892822  0.58312804
   0.31816349  0.91144397  0.09608088
   0.33570464  0.91411291  0.60320276
   0.83772806  0.43086964  0.08815418
   0.83083764  0.42890909  0.60295403
   0.84968211  0.87809823  0.12113014
   0.84674068  0.90686061  0.58857358
   0.34469936  0.15199163  0.34128028
   0.32561617  0.15203817  0.85282290
   0.33272134  0.68079527  0.33647566
   0.32295315  0.64371586  0.83855433
   0.82126083  0.17218973  0.32750424
   0.87647421  0.16556327  0.84336564
   0.84470212  0.66199808  0.35105066
   0.82729829  0.66655534  0.84739027
   0.08374092  0.40211369  0.34070687
   0.07246394  0.41616279  0.85218561
   0.08014246  0.92991507  0.35108120
   0.07300970  0.88940727  0.83321459
   0.58618326  0.41288880  0.33350183
   0.58620995  0.39992986  0.84217095
   0.57323410  0.93938564  0.35321697
   0.55737717  0.89471766  0.81857522
