Si CD                                   
           1
    10.995510    0.048722   -0.060461
     0.000000   10.865733    0.006769
    -0.000000    0.000000   10.940740
   Si
    64
Direct configuration=  1710
   0.39363305  0.47314291  0.47051342
   0.39904262  0.46012531  0.96301999
   0.39657442  0.95840960  0.46948431
   0.39540305  0.97414604  0.97510323
   0.89756180  0.46565427  0.46862791
   0.89149652  0.47229838  0.97173330
   0.88414675  0.97788745  0.47331575
   0.90760572  0.97936065  0.96675123
   0.15174373  0.21101063  0.46906699
   0.15456412  0.22698541  0.97308050
   0.15387525  0.72208825  0.46487515
   0.14442498  0.71527800  0.97317497
   0.64371515  0.21264856  0.46833449
   0.65895034  0.22120994  0.97550891
   0.65007206  0.72244491  0.47292120
   0.65887054  0.71754006  0.97225979
   0.14118859  0.45847331  0.22132782
   0.14677770  0.45623357  0.72821378
   0.14533367  0.95138783  0.23023425
   0.14869282  0.97457790  0.72432050
   0.64748593  0.46882669  0.21532559
   0.64501971  0.46351808  0.70521850
   0.64599585  0.96496579  0.20719675
   0.64385995  0.96286860  0.72784111
   0.40442075  0.22204647  0.23336199
   0.39934538  0.21561320  0.71717545
   0.39408941  0.71628635  0.20772805
   0.40032012  0.71659522  0.71818129
   0.90532116  0.20470474  0.21987854
   0.90065321  0.21366232  0.72082487
   0.91134400  0.70473521  0.22267226
   0.90835862  0.71862165  0.72980185
   0.02954783  0.08234887  0.09531667
   0.02637191  0.09405864  0.59956295
   0.02466012  0.58469321  0.09237490
   0.02885377  0.58322519  0.59155065
   0.52107168  0.09662523  0.09397249
   0.51360727  0.09004646  0.58865990
   0.52043160  0.59353306  0.08867476
   0.52497261  0.59551112  0.59559041
   0.27858631  0.34253447  0.10327196
   0.26816260  0.34145547  0.59665576
   0.26810069  0.83340204  0.09438590
   0.28305530  0.84340379  0.59880272
   0.78101015  0.34556009  0.10133584
   0.77419723  0.34202084  0.59720340
   0.79440702  0.83528871  0.10363754
   0.76923189  0.83630420  0.60371743
   0.27383743  0.08972171  0.34446606
   0.27911186  0.10388312  0.84642532
   0.27578439  0.58862636  0.33695348
   0.26591917  0.59148748  0.84546683
   0.76059020  0.09772467  0.33908741
   0.76968051  0.09160447  0.84015552
   0.76410494  0.58867776  0.34283510
   0.77326340  0.59030268  0.84324737
   0.02294564  0.34141269  0.34140140
   0.01411224  0.33608736  0.84948883
   0.01526436  0.83763952  0.35306012
   0.02683892  0.84261379  0.85146576
   0.52223317  0.34576926  0.34832207
   0.52651933  0.33786358  0.84331054
   0.52199558  0.84176679  0.32700555
   0.52474413  0.83928790  0.85198906
