Si CD                                   
           1
    10.942349   -0.172585   -0.153466
     0.000000   11.019142   -0.193083
    -0.000000    0.000000   10.878337
   Si
    64
Direct configuration=  8510
   0.41513889  0.43728150  0.42111319
   0.40867459  0.44808915  0.93120672
   0.38944881  0.92221179  0.40279762
   0.41178481  0.92815543  0.93827413
   0.89122623  0.41975352  0.42944667
   0.89892645  0.43824897  0.94450013
   0.89226314  0.92888463  0.43003848
   0.90949447  0.92968970  0.94935301
   0.14714205  0.19275667  0.44444921
   0.14880177  0.20934865  0.92064530
   0.12706589  0.69433597  0.45470918
   0.13145003  0.68178899  0.93997267
   0.63392845  0.17032481  0.40253642
   0.63264460  0.18750590  0.94263329
   0.62641514  0.68813708  0.43249744
   0.64631630  0.70681359  0.91487216
   0.16451635  0.45895130  0.18998418
   0.14375476  0.46318808  0.68844939
   0.16141755  0.93365667  0.13914502
   0.14874414  0.93341809  0.68613568
   0.63224985  0.44786654  0.18617954
   0.63450354  0.42105902  0.67091093
   0.65950586  0.94242726  0.16402743
   0.66801491  0.91882900  0.67334066
   0.36859572  0.21207631  0.18118883
   0.38623622  0.16411384  0.67551966
   0.39572183  0.66518008  0.21677248
   0.38603208  0.67181577  0.67430383
   0.91214019  0.19804408  0.17937616
   0.87538633  0.16760061  0.66669762
   0.86845607  0.71546211  0.22460568
   0.88126404  0.66903386  0.70620811
   0.03952767  0.06619294  0.03511387
   0.01780809  0.06281621  0.57220669
  -0.00144498  0.58230166  0.08727629
  -0.00486825  0.56660288  0.56764093
   0.52022884  0.06834683  0.07020252
   0.51475453  0.03500060  0.52809672
   0.51055325  0.57110111  0.05587220
   0.52626785  0.55895595  0.56277694
   0.26202965  0.35058212  0.05325179
   0.28570705  0.30996411  0.56046133
   0.28126858  0.79120265  0.05483639
   0.26336901  0.80769466  0.54859443
   0.78151032  0.29158927  0.05620214
   0.75919277  0.28070489  0.53352317
   0.78809786  0.80081504  0.05631267
   0.78078233  0.78722758  0.52777201
   0.24896094  0.06717005  0.29706002
   0.26614460  0.06233550  0.82866101
   0.25651273  0.57109614  0.33633301
   0.27018685  0.55663460  0.80532424
   0.77980384  0.06159801  0.28881119
   0.76487676  0.06049292  0.81138654
   0.76957835  0.56757204  0.32859188
   0.75404875  0.53732243  0.80675143
   0.03826477  0.31039458  0.29346334
   0.01598279  0.31069267  0.78833990
   0.03693403  0.83073112  0.30124823
   0.01365395  0.80823920  0.82086586
   0.51554497  0.32018130  0.28999798
   0.50240191  0.30875930  0.78666101
   0.54085106  0.82278985  0.28886302
   0.51871244  0.81427470  0.80445975
