Si CD                                   
           1
    10.940909   -0.050652    0.145634
     0.000000   10.865130   -0.032503
    -0.000000    0.000000   10.993002
   Si
    64
Direct configuration=  2710
   0.41418095  0.46487769  0.46673055
   0.40256060  0.45300552  0.99242010
   0.40895219  0.95598445  0.47151825
   0.39066602  0.96201429  0.96553426
   0.90122155  0.44398899  0.48136274
   0.91465763  0.45878110  0.97577365
   0.91114884  0.97383304  0.47830780
   0.90885815  0.94808486  0.96909485
   0.14510053  0.21586715  0.46675590
   0.15095634  0.21977757  0.96257657
   0.15055721  0.71350270  0.47558280
   0.15728085  0.71236856  0.97431214
   0.66596045  0.21741554  0.46103724
   0.63740325  0.20680234  0.97250344
   0.64951231  0.70944327  0.47051305
   0.65262978  0.71395093  0.97232447
   0.14191574  0.45526523  0.22226363
   0.16177648  0.46365721  0.72053719
   0.13659518  0.96116211  0.20443240
   0.17244923  0.95307898  0.72427488
   0.65545564  0.45328731  0.22621639
   0.66022475  0.45435004  0.72687280
   0.65146223  0.95626146  0.22299466
   0.65050290  0.95391508  0.71531862
   0.39425193  0.20027288  0.22445700
   0.41026055  0.21230891  0.71158094
   0.39292816  0.69167256  0.22310411
   0.40272164  0.70177935  0.74037604
   0.90224958  0.21034062  0.20776683
   0.91499780  0.19211021  0.72053051
   0.90301121  0.70156733  0.23628203
   0.91181734  0.70870833  0.72555312
   0.02653572  0.09195056  0.08676290
   0.04642348  0.07795936  0.60311986
   0.02350215  0.58888375  0.10640005
   0.03279144  0.57704255  0.60080124
   0.51450477  0.07512126  0.09734878
   0.52743033  0.09348594  0.59985473
   0.54068671  0.58967264  0.10122982
   0.54446196  0.58148835  0.61182942
   0.27201568  0.33241072  0.10584039
   0.28059513  0.34082936  0.59435506
   0.27868074  0.83683962  0.10921932
   0.29462444  0.82866988  0.59328915
   0.76969442  0.33306028  0.08640500
   0.77980542  0.32973110  0.60620553
   0.78516468  0.82242627  0.10569997
   0.79623163  0.83608185  0.59513301
   0.26630420  0.07376657  0.34708578
   0.27488564  0.09407613  0.84578120
   0.26606771  0.58581107  0.35152290
   0.27894263  0.58189084  0.86299579
   0.77997396  0.08740484  0.33846768
   0.77793806  0.07465230  0.84410485
   0.77146419  0.57622339  0.36331522
   0.77893098  0.58680270  0.86150389
   0.02342050  0.33111994  0.34117195
   0.03109125  0.33764984  0.83433709
   0.02324332  0.85638539  0.34831848
   0.03457824  0.83600913  0.83934405
   0.52491520  0.32526726  0.34113807
   0.51125363  0.32820240  0.85081713
   0.52386016  0.83129534  0.34141185
   0.52136097  0.83595037  0.83789987
