Si CD                                   
           1
    10.858695   -0.071263    0.122750
     0.000000   10.964839   -0.009925
    -0.000000    0.000000   11.013813
   Si
    64
Direct configuration=  2110
   0.40985465  0.46293450  0.42919945
   0.41719608  0.45116660  0.94430412
   0.41661913  0.95524281  0.43634450
   0.40963037  0.96029170  0.94350413
   0.91223123  0.47293339  0.44089412
   0.90767615  0.46075722  0.92925365
   0.91402087  0.96811480  0.44332634
   0.90027901  0.96050576  0.94155514
   0.15205193  0.20711911  0.44204848
   0.15260702  0.21418064  0.94493818
   0.16847725  0.70673626  0.43344019
   0.14419033  0.70540756  0.94217427
   0.65458446  0.20411254  0.43381997
   0.66748208  0.21097581  0.95296823
   0.67309066  0.70565957  0.44183812
   0.65677765  0.71813345  0.93963193
   0.14894064  0.46686370  0.19543944
   0.15656388  0.45983324  0.69063253
   0.15706926  0.95050254  0.19485431
   0.17231726  0.97125431  0.69545876
   0.65765004  0.46859848  0.19366489
   0.67155784  0.45478382  0.69565732
   0.65533699  0.96309539  0.19321951
   0.65925899  0.96579044  0.69784816
   0.40267190  0.20598654  0.19687770
   0.42004554  0.22102485  0.68299829
   0.40638531  0.71060723  0.18319541
   0.40371026  0.69717163  0.69447426
   0.90808227  0.21169943  0.18213374
   0.90239715  0.21643151  0.67852800
   0.90032346  0.72029862  0.19569933
   0.90711321  0.72063131  0.68697383
   0.03859489  0.07583629  0.06228797
   0.03819608  0.07893016  0.57563400
   0.02124389  0.58909363  0.07725315
   0.03766861  0.59236421  0.56609604
   0.52923539  0.08582558  0.06108439
   0.52888854  0.08879967  0.56214266
   0.53185464  0.58458880  0.05973743
   0.54440578  0.58282819  0.55834957
   0.27845326  0.34704396  0.07950765
   0.28124508  0.33132151  0.55068356
   0.27520280  0.82993827  0.05183419
   0.29271977  0.83554777  0.56068679
   0.79667717  0.34216251  0.06672868
   0.78839635  0.34295327  0.54807023
   0.77858599  0.84281211  0.06633869
   0.77997211  0.83912577  0.56803191
   0.27799329  0.07859192  0.32485151
   0.29543484  0.10091545  0.81700472
   0.28679048  0.57830690  0.30935836
   0.27943791  0.57154173  0.82306243
   0.79252756  0.08967228  0.32090659
   0.76774282  0.09459097  0.82103771
   0.79788904  0.57983250  0.30379934
   0.77684710  0.59279663  0.81385322
   0.03110692  0.32682874  0.31474589
   0.02422250  0.33804795  0.79953147
   0.03605001  0.83932602  0.32424422
   0.03914379  0.83503038  0.81779074
   0.53439394  0.33395515  0.29836305
   0.54570146  0.33428592  0.82992287
   0.53046059  0.83414745  0.32077991
   0.52421928  0.83387850  0.81091745
