Si CD                                   
           1
    10.973972   -0.158447   -0.237941
     0.000000   10.890232    0.137322
    -0.000000    0.000000   10.904067
   Si
    64
Direct configuration=  5110
   0.54202619  0.42261294  0.46349230
   0.51970507  0.42871915  0.97891418
   0.50738088  0.91424058  0.44659025
   0.51053178  0.90697785  0.96256616
   1.02065752  0.41967255  0.46650980
   1.01749275  0.36963237  0.95311822
   1.02317119  0.90976723  0.45925456
   1.02923159  0.89472183  0.96188600
   0.26876434  0.17626136  0.44985376
   0.26087545  0.16622390  0.94719469
   0.26613873  0.65742783  0.46015338
   0.27084128  0.65353719  0.96723066
   0.76494357  0.19099798  0.46947140
   0.76047425  0.14004514  0.95221752
   0.78101139  0.68672831  0.49153598
   0.80406979  0.65389634  0.96988529
   0.27664667  0.40244324  0.20817995
   0.28163701  0.40708831  0.70596726
   0.26777728  0.89646041  0.21424103
   0.28660459  0.90718750  0.72261601
   0.78225640  0.41625132  0.23149262
   0.78117572  0.40240063  0.74806625
   0.78188386  0.94203145  0.22966995
   0.75070476  0.90390271  0.72379298
   0.51709893  0.15976557  0.21528778
   0.50579502  0.16442724  0.71557846
   0.55358074  0.66615272  0.20438931
   0.51982572  0.66366250  0.71037752
   1.02865605  0.15787516  0.22740869
   1.01914760  0.13421875  0.68902734
   1.04308219  0.64232933  0.20829298
   1.03564586  0.66336299  0.72985646
   0.15134132  0.03869731  0.08457180
   0.16222556  0.02141632  0.57897244
   0.13603481  0.51142297  0.07170601
   0.13908605  0.54396433  0.60493835
   0.64359174  0.02965402  0.09029765
   0.64879890  0.04520082  0.58339427
   0.67413635  0.53763145  0.07567024
   0.67148174  0.54320749  0.60927843
   0.39263716  0.26922063  0.08128765
   0.41607779  0.29261333  0.57331825
   0.38900561  0.77449673  0.09159456
   0.40289860  0.79721571  0.58325746
   0.90254969  0.26733149  0.08655390
   0.90072217  0.30210613  0.58520842
   0.91221924  0.79041849  0.09616379
   0.90986481  0.80994028  0.61526977
   0.37446667  0.03214438  0.32745875
   0.39351370  0.03666870  0.84847157
   0.41037505  0.53337212  0.33310827
   0.39593118  0.53749176  0.84583303
   0.90728876  0.06055526  0.35768398
   0.89792875  0.01849214  0.82933597
   0.89742770  0.55482117  0.34616841
   0.91480208  0.52056896  0.86012797
   0.13367874  0.29187794  0.33873349
   0.14018852  0.27429962  0.80985893
   0.14412233  0.77489378  0.34022997
   0.16053188  0.77887380  0.85001956
   0.63855335  0.29036673  0.33628750
   0.64045557  0.27804856  0.84342474
   0.65211114  0.79615738  0.35003531
   0.64467947  0.78506311  0.85543498
