Si CD                                   
           1
    11.091414    0.104957    0.248517
     0.000000   10.927250   -0.022258
    -0.000000    0.000000   10.891237
   Si
    64
Direct configuration=  9910
   0.41767565  0.57442209  0.42821856
   0.42689356  0.55590300  0.93452277
   0.44097008  1.08446849  0.46045094
   0.41834417  1.06368874  0.96532080
   0.95030563  0.58672824  0.42595571
   0.92460329  0.55034625  0.92933666
   0.90688300  1.08877209  0.43058066
   0.94415665  1.06474257  0.91106262
   0.15977460  0.30998399  0.41817903
   0.20544576  0.32675238  0.94528811
   0.18300346  0.83933989  0.40845529
   0.16301686  0.82933916  0.95233470
   0.70333611  0.33757891  0.42414405
   0.65041425  0.33242488  0.93256574
   0.66460994  0.83011008  0.44719130
   0.67953433  0.82249610  0.94401194
   0.15110705  0.58848943  0.19333539
   0.19249762  0.55793668  0.69201350
   0.20168867  1.10398255  0.19361145
   0.18677586  1.07929227  0.67676499
   0.68612230  0.60408537  0.18404053
   0.67874892  0.58987406  0.68131136
   0.66436584  1.07667496  0.16539831
   0.68371415  1.07066099  0.69900325
   0.43913485  0.35120185  0.21603560
   0.42540666  0.32860044  0.66476158
   0.45048627  0.83965100  0.19361865
   0.42383658  0.81165941  0.73376741
   0.94242180  0.31879889  0.17954787
   0.90572260  0.33347601  0.67288831
   0.93835189  0.86980552  0.17830119
   0.94112267  0.82858444  0.66943468
   0.06181073  0.20381287  0.04629082
   0.04423858  0.18805188  0.55890634
   0.02116597  0.69532537  0.05859339
   0.07225927  0.69966041  0.55316596
   0.51155501  0.21385423  0.06925438
   0.58038218  0.22296031  0.57643376
   0.54842530  0.71679901  0.06159141
   0.54283653  0.69518345  0.56372839
   0.28284033  0.45358952  0.10299393
   0.30068633  0.44606684  0.51914154
   0.30603066  0.93047494  0.09245435
   0.31094044  0.93292535  0.59108431
   0.78565094  0.44290768  0.06440567
   0.82337099  0.46216942  0.54254375
   0.80820096  0.97131530  0.03594225
   0.79643510  0.94263420  0.58225771
   0.32336921  0.20002672  0.33209001
   0.33041083  0.20350340  0.80422401
   0.30138845  0.71149054  0.28487958
   0.28266699  0.69753672  0.82428380
   0.80275423  0.17702190  0.27219925
   0.80550539  0.19889609  0.81866278
   0.81368310  0.73023985  0.31145379
   0.81706539  0.69753918  0.80669679
   0.04436803  0.44275744  0.29451748
   0.05331444  0.44091401  0.81078338
   0.07378841  0.98708132  0.32002796
   0.07877448  0.94622973  0.79686921
   0.56549610  0.46185649  0.32411633
   0.54738399  0.46774512  0.79720424
   0.56722427  0.96219082  0.31075922
   0.55153939  0.94575719  0.82611088
