Si CD                                   
           1
    10.929926   -0.142636   -0.027101
     0.000000   10.990956    0.093258
    -0.000000    0.000000   11.116814
   Si
    64
Direct configuration=  3310
   0.42293953  0.47537346  0.47981948
   0.42193370  0.46614015  0.98695450
   0.41964154  0.97137901  0.48108055
   0.44070525  0.97833735  0.99300694
   0.92205223  0.46932402  0.47319244
   0.94560919  0.48052032  0.96411096
   0.93483128  0.98472119  0.49615705
   0.92862632  0.96424177  0.98285772
   0.17824500  0.23345535  0.48515526
   0.17003984  0.22078685  0.97774138
   0.17341933  0.72890429  0.48496777
   0.17211956  0.73571203  0.98243725
   0.67558221  0.22032862  0.49203899
   0.67704232  0.23515409  0.96625800
   0.66182694  0.72333979  0.46265984
   0.68404605  0.71089445  0.97736198
   0.14942830  0.47553815  0.22143755
   0.17842217  0.47296064  0.73780547
   0.17892118  0.97594220  0.23735846
   0.17735484  0.97694781  0.72400796
   0.67970883  0.46455854  0.22395569
   0.67290259  0.46932629  0.71670441
   0.67451633  0.98239146  0.23683359
   0.67842641  0.95713529  0.72286550
   0.41997586  0.23217908  0.23714464
   0.41768762  0.20918060  0.74227384
   0.41731122  0.72229122  0.24004364
   0.42890827  0.71844572  0.73679642
   0.92271876  0.22605649  0.22942591
   0.92073574  0.22126545  0.73387033
   0.90800598  0.73129375  0.22705535
   0.92419413  0.71884725  0.73468300
   0.06113261  0.09094147  0.11068484
   0.05470989  0.10745510  0.60966364
   0.04170038  0.61692559  0.10704487
   0.03891503  0.59478011  0.59786909
   0.55083744  0.11512585  0.11265879
   0.54361221  0.08978591  0.61482492
   0.56041256  0.59748913  0.10439816
   0.54328841  0.60064375  0.59682063
   0.28649497  0.34953236  0.09953795
   0.30602726  0.33615544  0.61702960
   0.30145701  0.85436085  0.11295237
   0.31491348  0.84637086  0.60609997
   0.81809992  0.36368655  0.09520587
   0.80779814  0.34226346  0.60413703
   0.79609005  0.85621745  0.10512040
   0.79920580  0.84802898  0.58181720
   0.29551674  0.10788258  0.36546031
   0.29169925  0.08634840  0.86568345
   0.28643815  0.60042830  0.35198494
   0.30164484  0.60237483  0.87000140
   0.80259923  0.10470210  0.35778524
   0.80315089  0.09061673  0.85206541
   0.79015097  0.59082640  0.35027789
   0.80161093  0.58654088  0.84336368
   0.04956093  0.33283314  0.34469880
   0.05531202  0.34394440  0.85059136
   0.04035887  0.85442322  0.36504870
   0.05719350  0.84330329  0.84762622
   0.54904872  0.35518390  0.36183684
   0.54148693  0.35568061  0.84639698
   0.55153033  0.85846263  0.35488871
   0.55579189  0.85469784  0.85746040
