Si CD                                   
           1
    11.055596   -0.201062   -0.044760
     0.000000   10.916678   -0.116592
    -0.000000    0.000000   10.906029
   Si
    64
Direct configuration=  6910
   0.43855838  0.40969783  0.48248857
   0.42726896  0.38172449  0.94823296
   0.43687155  0.89764618  0.47447673
   0.41420249  0.88620562  0.94728673
   0.95971830  0.40536986  0.44300659
   0.96174881  0.38958698  0.94795681
   0.93848804  0.88119415  0.46521815
   0.95373193  0.88770812  0.95194123
   0.19091539  0.14736036  0.45681053
   0.17179658  0.15283925  0.97781303
   0.17950197  0.62479914  0.44880648
   0.21260152  0.66338933  0.96277152
   0.69430556  0.15374040  0.48278619
   0.69331689  0.13448124  0.95940350
   0.68773160  0.65147578  0.45899318
   0.66640575  0.65975857  0.97875374
   0.19258320  0.41114085  0.18017237
   0.17414009  0.40151649  0.70347710
   0.20203228  0.90322741  0.21759225
   0.19420717  0.90712614  0.69551233
   0.69838221  0.39550245  0.21888089
   0.70492221  0.39361872  0.71655652
   0.69401678  0.90597736  0.22097910
   0.68767851  0.90575225  0.72042547
   0.42708043  0.14854253  0.21914593
   0.43377697  0.14299883  0.70541287
   0.44923382  0.61514887  0.21021941
   0.44117403  0.63806119  0.71412863
   0.94667205  0.15047178  0.23143656
   0.94104017  0.13990363  0.70517940
   0.94169231  0.67263484  0.18890770
   0.94703445  0.64683125  0.70392217
   0.05972411  0.00257854  0.09026825
   0.05041981  0.00723265  0.57871248
   0.06926818  0.52862160  0.06576544
   0.05862271  0.53482565  0.58079490
   0.55400723  0.02530291  0.09390797
   0.56149122  0.01028160  0.60775101
   0.57111903  0.49907416  0.08605189
   0.57603867  0.52710817  0.57868492
   0.31519089  0.27192048  0.09119965
   0.32200103  0.27077239  0.58926970
   0.32667013  0.76845863  0.11183456
   0.29803078  0.75436553  0.57526023
   0.84012561  0.26291756  0.08869483
   0.83943594  0.27119388  0.57795041
   0.81262931  0.77742844  0.08392283
   0.80111994  0.77461214  0.58838738
   0.31265479  0.02643734  0.34489833
   0.29342885  0.03401261  0.83368835
   0.30729388  0.50557379  0.33358147
   0.30421698  0.51781097  0.82649139
   0.80411971  0.05111838  0.35507478
   0.82391166  0.01305352  0.83231055
   0.82945334  0.54900675  0.33755883
   0.83680654  0.51881689  0.83723865
   0.08189906  0.28536929  0.33045211
   0.05705664  0.25025556  0.82905513
   0.06720324  0.76845964  0.33475379
   0.08716170  0.76542766  0.82899212
   0.56510368  0.27227930  0.35182060
   0.57207620  0.25912093  0.84628128
   0.56112013  0.76935849  0.33230345
   0.55216158  0.77809138  0.84100701
