Si CD                                   
           1
    10.818545    0.146134    0.164695
     0.000000   11.050780    0.109534
    -0.000000    0.000000   10.931652
   Si
    64
Direct configuration=  4110
   0.50873534  0.45225266  0.48873593
   0.50868080  0.43106507  0.98536589
   0.49446320  0.94627792  0.48294576
   0.49794004  0.95259372  0.98226352
   1.00017835  0.44214646  0.46194866
   1.01003454  0.43547122  0.99657650
   0.99080610  0.95858626  0.48206213
   0.99859901  0.94106581  0.96490008
   0.24547524  0.19898722  0.47867824
   0.26546649  0.18206915  0.98688010
   0.24330632  0.68127444  0.47974621
   0.24950241  0.68593228  0.98936760
   0.74120599  0.20162478  0.48027643
   0.74938874  0.17995253  0.98247706
   0.73929664  0.69279071  0.48561111
   0.77366056  0.68735245  0.98282245
   0.25456249  0.42696354  0.24559352
   0.23842705  0.41019436  0.73800434
   0.24395673  0.94497815  0.23528800
   0.25024960  0.91849710  0.73533292
   0.76116643  0.44802886  0.23121045
   0.76309858  0.42002082  0.74203279
   0.74018642  0.93282037  0.22636621
   0.71742779  0.93254209  0.73466465
   0.49917267  0.18658790  0.22951463
   0.48014130  0.20202604  0.72872129
   0.49069403  0.69533583  0.22193888
   0.48464488  0.68687558  0.74754807
   0.99349218  0.17693623  0.22678121
   1.00080735  0.18662508  0.72808093
   1.00566345  0.68999556  0.23494578
   0.99464757  0.68781178  0.73075566
   0.10878071  0.06494404  0.08571666
   0.13283327  0.06405777  0.61478926
   0.13650299  0.56434617  0.10966874
   0.12631658  0.55266299  0.61883732
   0.62249681  0.05586778  0.11312557
   0.60706594  0.07401366  0.59980425
   0.64223073  0.56432762  0.09156416
   0.63427496  0.55248209  0.61681283
   0.38291623  0.31362605  0.10522760
   0.37523066  0.31415288  0.58985403
   0.36783073  0.82185121  0.11138871
   0.38286032  0.80515731  0.61319502
   0.87926314  0.31187152  0.10654866
   0.88114341  0.32030043  0.59204185
   0.88359492  0.82164997  0.10879794
   0.87181070  0.83446725  0.60794784
   0.37663348  0.07382797  0.35934510
   0.37971794  0.06550949  0.85027976
   0.38179302  0.55471954  0.34893897
   0.36267463  0.54493019  0.85354095
   0.85236818  0.05938225  0.36079395
   0.86291406  0.06460151  0.85261955
   0.86727096  0.57959626  0.36570181
   0.88514636  0.55218449  0.85147855
   0.11070658  0.31118142  0.34741334
   0.11908474  0.30058473  0.86203013
   0.11834497  0.82348248  0.36124362
   0.12651563  0.80912126  0.85201135
   0.62452837  0.31351966  0.34326992
   0.63371140  0.30735203  0.85152906
   0.60968890  0.79650702  0.36245103
   0.62047851  0.79696152  0.88274090
