Si CD                                   
           1
    10.964464   -0.059068    0.122149
     0.000000   10.947637    0.069956
    -0.000000    0.000000   10.971343
   Si
    64
Direct configuration=  8110
   0.44940606  0.39308190  0.40341758
   0.40057551  0.38868746  0.91504757
   0.42153215  0.86624762  0.40724920
   0.41922930  0.88354453  0.91553663
   0.93469469  0.37882637  0.42701727
   0.94195687  0.39010987  0.92686851
   0.94482632  0.88879349  0.41680691
   0.91881241  0.89488475  0.93266624
   0.20000566  0.13709603  0.44450117
   0.17041753  0.13040845  0.89854440
   0.18413520  0.60794246  0.42090043
   0.15538025  0.65047517  0.93121649
   0.68131167  0.14659108  0.43291801
   0.67561895  0.12268606  0.90810610
   0.69582666  0.64006978  0.43151406
   0.68263068  0.64576182  0.93820098
   0.17756610  0.37204106  0.16735975
   0.18408098  0.40250521  0.67764932
   0.18000337  0.87893756  0.17603463
   0.19643007  0.87751715  0.65474808
   0.67347312  0.38296483  0.15538940
   0.69097042  0.38818300  0.70376430
   0.66465459  0.88749894  0.18538981
   0.66689791  0.88454003  0.65633612
   0.42627416  0.10714589  0.13993353
   0.41465560  0.15324775  0.65916493
   0.43289487  0.64687122  0.16543656
   0.40964000  0.63137771  0.65752681
   0.92958375  0.12591475  0.16009996
   0.94357528  0.14305026  0.65417588
   0.92675718  0.63187049  0.17788842
   0.93288945  0.63441007  0.67227582
   0.06532230  0.01134644  0.04307920
   0.07486180  0.00728804  0.53640750
   0.05783688  0.51180139  0.06740631
   0.05235763  0.51042953  0.54566173
   0.53832660 -0.00166698  0.03300254
   0.54504213  0.03162887  0.54425218
   0.53957303  0.49349315  0.03522759
   0.56927678  0.50592453  0.56821883
   0.29060774  0.25444454  0.03011509
   0.30080829  0.29123729  0.54797389
   0.29524613  0.76244508  0.04314381
   0.30365087  0.75439199  0.52753580
   0.81962920  0.26094462  0.03858934
   0.79694125  0.28183929  0.53885150
   0.79529357  0.78136006  0.04435185
   0.82675170  0.75414118  0.54110085
   0.30267857  0.00607074  0.29252981
   0.30899666 -0.00198707  0.77877252
   0.30517499  0.51575498  0.29063238
   0.29590510  0.52250820  0.81120251
   0.80344804  0.01314934  0.29821650
   0.79470539  0.00540795  0.78558717
   0.79929505  0.49118830  0.29663465
   0.83354642  0.53268569  0.82824732
   0.03955901  0.23242790  0.28987076
   0.06602264  0.27576329  0.79263373
   0.06019594  0.74520048  0.28464675
   0.05115108  0.77235854  0.78886286
   0.54228422  0.24827970  0.27667809
   0.54608047  0.26385914  0.80397395
   0.55935379  0.74983456  0.30830853
   0.56330261  0.75423136  0.80832525
