Si CD                                   
           1
    11.004355   -0.043284    0.083053
     0.000000   10.908371    0.008936
    -0.000000   -0.000000   11.006264
   Si
    64
Direct configuration=  1310
   0.44158187  0.47156401  0.46897559
   0.42711765  0.46984465  0.96706845
   0.42605398  0.97201679  0.46485945
   0.43096278  0.96133697  0.97025745
   0.93278671  0.46703563  0.47522433
   0.92231909  0.47245923  0.96373673
   0.91582267  0.96279191  0.47872659
   0.91794151  0.96715216  0.97308550
   0.18089226  0.21714263  0.47550629
   0.18597959  0.21467784  0.96756782
   0.17985737  0.70743593  0.46790378
   0.16748944  0.70752115  0.96044309
   0.68152016  0.21729082  0.46606393
   0.68816994  0.21733809  0.96402719
   0.67470721  0.72769227  0.46500091
   0.67417930  0.71974816  0.96553360
   0.16672158  0.45792545  0.21472241
   0.17511743  0.46830856  0.71075386
   0.17390798  0.96846505  0.21523116
   0.17215660  0.95600244  0.71289170
   0.66939095  0.45872126  0.22046417
   0.68175022  0.46850619  0.69885130
   0.67492289  0.96903961  0.22757048
   0.68062965  0.97208900  0.71614737
   0.41893531  0.21628011  0.22254638
   0.42409095  0.21862902  0.71449847
   0.41859511  0.71051489  0.21855293
   0.43530158  0.71021538  0.71979350
   0.92812345  0.21927929  0.21674699
   0.94045716  0.21259833  0.72053653
   0.93318090  0.71366206  0.22571002
   0.92128317  0.71402102  0.72098939
   0.05178081  0.09333942  0.09697722
   0.05446362  0.08420925  0.59577831
   0.04424215  0.59152287  0.10024729
   0.04846104  0.59733304  0.59544613
   0.56063598  0.09564890  0.08609632
   0.55213856  0.09716512  0.58680108
   0.55050618  0.58513803  0.09496612
   0.55598536  0.60457731  0.58955023
   0.30234317  0.33728584  0.09685474
   0.30398548  0.34706863  0.59158819
   0.29943306  0.83520469  0.09289732
   0.30468917  0.83492462  0.59494454
   0.80908225  0.33644524  0.09247563
   0.81269339  0.33460180  0.59334192
   0.80213974  0.83657114  0.09826710
   0.79402702  0.84953472  0.59312054
   0.28811435  0.09221484  0.34792893
   0.30321931  0.08292306  0.84127681
   0.29454372  0.57839571  0.33819673
   0.30377165  0.58906579  0.84102596
   0.80065275  0.08987701  0.34284899
   0.80709922  0.08985396  0.84408202
   0.80046708  0.58780151  0.34816139
   0.79361400  0.58663456  0.83408348
   0.04585225  0.34293145  0.34797807
   0.05938059  0.33982740  0.84494761
   0.05246899  0.83986632  0.35317054
   0.04174236  0.83728766  0.85015463
   0.54623282  0.33643611  0.33839385
   0.55741390  0.34080837  0.83689410
   0.53935038  0.83929651  0.34063522
   0.55608304  0.84450285  0.84054689
