Si CD                                   
           1
    10.998345   -0.060305    0.309804
     0.000000   11.116405   -0.147926
    -0.000000    0.000000   10.826460
   Si
    64
Direct configuration=  7710
   0.38807298  0.34939430  0.43437469
   0.39288333  0.36385527  0.92175403
   0.37268754  0.85109485  0.43959813
   0.37078203  0.84627198  0.93768721
   0.85717498  0.36094905  0.41519856
   0.85975742  0.35346878  0.92066996
   0.89024294  0.86628499  0.44038776
   0.88712532  0.84227147  0.89756986
   0.12132355  0.11840910  0.43725182
   0.12564422  0.11455197  0.92695525
   0.12834300  0.61465087  0.40693569
   0.13454952  0.60122701  0.93100472
   0.64753090  0.09630491  0.40484730
   0.62228401  0.08156457  0.95776933
   0.62111342  0.59877792  0.42659453
   0.62788777  0.58388716  0.90961535
   0.13508836  0.32916437  0.18199822
   0.13697158  0.35147925  0.68033500
   0.14193833  0.86602459  0.18968383
   0.12792899  0.85537916  0.65695571
   0.63468156  0.34540104  0.18040303
   0.59465995  0.34465676  0.65197178
   0.61254787  0.82414050  0.17692862
   0.65900353  0.86891860  0.67034081
   0.39222895  0.09252286  0.18415332
   0.36243352  0.07300222  0.67444474
   0.36967933  0.57754819  0.18413260
   0.39260866  0.62641237  0.69365375
   0.89131388  0.09281329  0.17038696
   0.85631803  0.13685692  0.68719299
   0.87473754  0.61361323  0.16770777
   0.87951012  0.60447347  0.68456925
   0.01554910 -0.03069801  0.05160935
   0.00406660  0.01247023  0.58310922
  -0.01796804  0.47326132  0.03968179
   0.00030390  0.48512823  0.54407903
   0.50661350 -0.04381489  0.08087722
   0.50332787 -0.02293870  0.54868578
   0.51599718  0.48504424  0.05682461
   0.49912606  0.48727720  0.55580679
   0.26960525  0.21441641  0.05121401
   0.25501616  0.22352052  0.55599491
   0.25416393  0.72642764  0.06286716
   0.24508502  0.71897177  0.54870524
   0.76487181  0.20639879  0.05110898
   0.74512490  0.22666860  0.54354952
   0.74959087  0.71992105  0.03554970
   0.76773289  0.72445981  0.55631818
   0.25400360 -0.00722921  0.32107098
   0.25082165 -0.04821820  0.78078916
   0.23649139  0.46412497  0.31663391
   0.26963464  0.48417879  0.80847334
   0.76086550 -0.04415825  0.29163143
   0.74765083 -0.00896093  0.81807904
   0.73129000  0.49380830  0.29888572
   0.74028029  0.45491414  0.76835026
  -0.00814638  0.23102698  0.28656279
  -0.00332362  0.25142696  0.80477399
   0.01340974  0.74014422  0.29120461
   0.01850467  0.70992786  0.79066546
   0.49591924  0.20583759  0.32721712
   0.48978915  0.20592858  0.80939831
   0.49463614  0.72254248  0.31792450
   0.53000842  0.76303686  0.81346480
