Si CD                                   
           1
    10.955057    0.015775    0.055885
     0.000000   10.945156   -0.033971
    -0.000000    0.000000   10.922869
   Si
    64
Direct configuration=   510
   0.43478964  0.44437224  0.44198399
   0.43847518  0.44282370  0.94488799
   0.44081020  0.94849981  0.45514499
   0.43456184  0.95005153  0.94575745
   0.94676577  0.45380167  0.44605998
   0.94072549  0.44509044  0.95610556
   0.93824699  0.95400928  0.44921469
   0.94042240  0.94317393  0.94828123
   0.18401859  0.19879867  0.44497902
   0.19141229  0.20112315  0.94436125
   0.18478809  0.70209566  0.45289457
   0.20042600  0.69424187  0.94249182
   0.69061282  0.20570751  0.45354008
   0.69017745  0.19848769  0.94381492
   0.69265390  0.69420363  0.44221367
   0.68831376  0.70599291  0.94673146
   0.19831784  0.44988022  0.20277904
   0.19252118  0.44591353  0.69592451
   0.19229965  0.95162432  0.18899357
   0.18796186  0.94341140  0.69218355
   0.69353836  0.44694204  0.19029142
   0.69111575  0.44296430  0.69666414
   0.68421348  0.95389745  0.20790299
   0.69038216  0.95834568  0.69686794
   0.44507123  0.19601369  0.19840635
   0.44154550  0.20314502  0.69783757
   0.44415193  0.69843401  0.20114033
   0.44538837  0.69433421  0.69123258
   0.93967220  0.20048644  0.20568259
   0.94833904  0.21050708  0.69798707
   0.94556901  0.71171971  0.19425307
   0.93107643  0.69427211  0.70527445
   0.05939437  0.07364335  0.07194231
   0.06792841  0.07577078  0.57596798
   0.06960325  0.57450829  0.07487391
   0.05673153  0.57982645  0.57456963
   0.56576540  0.07268146  0.06745143
   0.55887436  0.07984516  0.57151457
   0.56028851  0.57125667  0.07656473
   0.57213767  0.56231806  0.56669954
   0.31786362  0.32185278  0.07331539
   0.31617986  0.32244661  0.56773307
   0.32344788  0.82131794  0.07454521
   0.32059558  0.81627727  0.58284117
   0.81964737  0.31452306  0.07015405
   0.82233468  0.32583733  0.57231546
   0.80973099  0.82191937  0.07481739
   0.81278114  0.82907214  0.57167177
   0.31694179  0.07035085  0.31913145
   0.30973525  0.07543015  0.81234644
   0.31543133  0.57870634  0.32896895
   0.31965409  0.56381079  0.81490271
   0.81324789  0.08271772  0.32846523
   0.82373761  0.08271230  0.82178000
   0.82297649  0.57518127  0.31670877
   0.81294695  0.56621384  0.83032811
   0.06652783  0.33040394  0.32034305
   0.07249104  0.32646296  0.82831186
   0.06688716  0.83475614  0.32061303
   0.06765251  0.81969515  0.82547117
   0.56825944  0.32458257  0.32108566
   0.56796507  0.31871265  0.81843980
   0.56795247  0.82142696  0.32699801
   0.56305438  0.83279760  0.81779173
